#------------------------------------------------------------------------------
#$Date: 2016-02-13 21:28:24 +0200 (Sat, 13 Feb 2016) $
#$Revision: 176429 $
#$URL: svn://www.crystallography.net/cod/cif/8/10/44/8104446.cif $
#------------------------------------------------------------------------------
#
# This file is available in the Crystallography Open Database (COD),
# http://www.crystallography.net/
#
# All data on this site have been placed in the public domain by the
# contributors.
#
data_8104446
loop_
_publ_author_name
'Levi, G.R.'
'Peyronel, G.'
_publ_section_title
;
 Struttura cristallographica del gruppo isomorpho (Si, Ti, Zr, Sn, Hf) P2
 O7
;
_journal_name_full
;
Zeitschrift fuer Kristallographie, Kristallgeometrie, Kristallphysik, 
Kristallchemie (-144,1977)
;
_journal_page_first              190
_journal_page_last               209
_journal_volume                  92
_journal_year                    1935
_chemical_formula_sum            'O7 P2 Zr'
_chemical_name_systematic        'Zr (P2 O7)'
_space_group_IT_number           205
_symmetry_space_group_name_Hall  '-P 2ac 2ab 3'
_symmetry_space_group_name_H-M   'P a -3'
_cell_angle_alpha                90
_cell_angle_beta                 90
_cell_angle_gamma                90
_cell_formula_units_Z            4
_cell_length_a                   8.23
_cell_length_b                   8.23
_cell_length_c                   8.23
_cell_volume                     557.442
_citation_journal_id_ASTM        ZEKGAX
_cod_data_source_file            Levi_ZEKGAX_1935_1644.cif
_cod_data_source_block           O7P2Zr1
_cod_original_cell_volume        557.4417
_cod_original_formula_sum        'O7 P2 Zr1'
_cod_database_code               8104446
loop_
_symmetry_equiv_pos_as_xyz
x,y,z
-x+1/2,-y,z+1/2
x+1/2,-y+1/2,-z
-x,y+1/2,-z+1/2
z,x,y
-z+1/2,-x,y+1/2
z+1/2,-x+1/2,-y
-z,x+1/2,-y+1/2
y,z,x
y+1/2,-z+1/2,-x
-y,z+1/2,-x+1/2
-y+1/2,-z,x+1/2
-x,-y,-z
x-1/2,y,-z-1/2
-x-1/2,y-1/2,z
x,-y-1/2,z-1/2
-z,-x,-y
z-1/2,x,-y-1/2
-z-1/2,x-1/2,y
z,-x-1/2,y-1/2
-y,-z,-x
-y-1/2,z-1/2,x
y,-z-1/2,x-1/2
y-1/2,z,-x-1/2
loop_
_atom_site_label
_atom_site_type_symbol
_atom_site_fract_x
_atom_site_fract_y
_atom_site_fract_z
_atom_site_occupancy
_atom_site_U_iso_or_equiv
P1 P+5 0.39 0.39 0.39 1 0.0
O1 O-2 0.5 0.5 0.5 1 0.0
O2 O-2 0.394 0.218 0.458 1 0.0
Zr1 Zr+4 0 0 0 1 0.0
