#------------------------------------------------------------------------------
#$Date: 2015-10-10 01:00:49 +0300 (Sat, 10 Oct 2015) $
#$Revision: 163541 $
#$URL: svn://www.crystallography.net/cod/cif/8/10/40/8104042.cif $
#------------------------------------------------------------------------------
#
# This file is available in the Crystallography Open Database (COD),
# http://www.crystallography.net/
#
# All data on this site have been placed in the public domain by the
# contributors.
#
data_8104042
loop_
_publ_author_name
'Cerny, R.'
'Manyako, M.'
'Yanson, T.'
'Pacheco, V.'
'Bodak, O.'
_publ_section_title
;
 Structure of iron-rich compounds in the Yb-Fe-Al system
;
_journal_name_full
'Zeitschrift fuer Kristallographie (149,1979-)'
_journal_page_first              802
_journal_page_last               810
_journal_volume                  218
_journal_year                    2003
_chemical_formula_sum            'Al3.4902 Fe13.1298 Yb2.19'
_chemical_name_systematic        'Yb2.19 (Fe0.79 Al0.21)16.62'
_space_group_IT_number           166
_symmetry_space_group_name_Hall  '-R 3 2"'
_symmetry_space_group_name_H-M   'R -3 m :H'
_cell_angle_alpha                90
_cell_angle_beta                 90
_cell_angle_gamma                120
_cell_formula_units_Z            3
_cell_length_a                   8.662
_cell_length_b                   8.662
_cell_length_c                   12.589
_cell_volume                     818.009
_citation_journal_id_ASTM        ZEKRDZ
_cod_data_source_file            Cerny_ZEKRDZ_2003_1482.cif
_cod_data_source_block           Al3.4902Fe13.1298Yb2.19
_cod_original_cell_volume        818.0092
_cod_database_code               8104042
loop_
_symmetry_equiv_pos_as_xyz
x,y,z
-y,x-y,z
-x+y,-x,z
y,x,-z
-x,-x+y,-z
x-y,-y,-z
-x,-y,-z
y,-x+y,-z
x-y,x,-z
-y,-x,z
x,x-y,z
-x+y,y,z
x+2/3,y+1/3,z+1/3
-y+2/3,x-y+1/3,z+1/3
-x+y+2/3,-x+1/3,z+1/3
y+2/3,x+1/3,-z+1/3
-x+2/3,-x+y+1/3,-z+1/3
x-y+2/3,-y+1/3,-z+1/3
-x+2/3,-y+1/3,-z+1/3
y+2/3,-x+y+1/3,-z+1/3
x-y+2/3,x+1/3,-z+1/3
-y+2/3,-x+1/3,z+1/3
x+2/3,x-y+1/3,z+1/3
-x+y+2/3,y+1/3,z+1/3
x+1/3,y+2/3,z+2/3
-y+1/3,x-y+2/3,z+2/3
-x+y+1/3,-x+2/3,z+2/3
y+1/3,x+2/3,-z+2/3
-x+1/3,-x+y+2/3,-z+2/3
x-y+1/3,-y+2/3,-z+2/3
-x+1/3,-y+2/3,-z+2/3
y+1/3,-x+y+2/3,-z+2/3
x-y+1/3,x+2/3,-z+2/3
-y+1/3,-x+2/3,z+2/3
x+1/3,x-y+2/3,z+2/3
-x+y+1/3,y+2/3,z+2/3
loop_
_atom_site_label
_atom_site_type_symbol
_atom_site_fract_x
_atom_site_fract_y
_atom_site_fract_z
_atom_site_occupancy
_atom_site_U_iso_or_equiv
Fe2 Fe 0.5 0 0.5 1 0.0
Fe3 Fe 0 0 0.1011 0.39 0.0
Yb1 Yb 0 0 0.34358 1 0.0
Al1 Al 0 0 0.1011 0.43 0.0
Al2 Al 0.33333 0 0 0.437 0.0
Fe4 Fe 0.2884 0 0 0.563 0.0
Fe1 Fe 0.16749 0.33498 0.49255 1 0.0
Yb2 Yb 0 0 0 0.185 0.0
