#------------------------------------------------------------------------------
#$Date: 2016-02-13 21:28:24 +0200 (Sat, 13 Feb 2016) $
#$Revision: 176429 $
#$URL: svn://www.crystallography.net/cod/cif/8/10/43/8104319.cif $
#------------------------------------------------------------------------------
#
# This file is available in the Crystallography Open Database (COD),
# http://www.crystallography.net/
#
# All data on this site have been placed in the public domain by the
# contributors.
#
data_8104319
loop_
_publ_author_name
'Schwer, H.'
'Kraemer, V.'
_publ_section_title
;
 The crystal structures of Cd Al2S4, Hg Al2S4, and Hg Ga2S4
;
_journal_name_full
'Zeitschrift fuer Kristallographie (149,1979-)'
_journal_page_first              103
_journal_page_last               110
_journal_volume                  190
_journal_year                    1990
_chemical_formula_sum            'Ga2 Hg S4'
_chemical_name_systematic        'Hg Ga2 S4'
_space_group_IT_number           82
_symmetry_space_group_name_Hall  'I -4'
_symmetry_space_group_name_H-M   'I -4'
_cell_angle_alpha                90
_cell_angle_beta                 90
_cell_angle_gamma                90
_cell_formula_units_Z            2
_cell_length_a                   5.5106
_cell_length_b                   5.5106
_cell_length_c                   10.2392
_cell_volume                     310.931
_citation_journal_id_ASTM        ZEKRDZ
_cod_data_source_file            Schwer_ZEKRDZ_1990_1953.cif
_cod_data_source_block           Ga2Hg1S4
_cod_original_cell_volume        310.9308
_cod_original_formula_sum        'Ga2 Hg1 S4'
_cod_database_code               8104319
loop_
_symmetry_equiv_pos_as_xyz
x,y,z
y,-x,-z
-x,-y,z
-y,x,-z
x+1/2,y+1/2,z+1/2
y+1/2,-x+1/2,-z+1/2
-x+1/2,-y+1/2,z+1/2
-y+1/2,x+1/2,-z+1/2
loop_
_atom_site_label
_atom_site_type_symbol
_atom_site_fract_x
_atom_site_fract_y
_atom_site_fract_z
_atom_site_occupancy
_atom_site_U_iso_or_equiv
Hg1 Hg+2 0 0 0 1 0.0
Ga1 Ga+3 0 0 0.5 1 0.0
Ga2 Ga+3 0 0.5 0.25 1 0.0
S1 S-2 0.2718 0.2675 0.1374 1 0.0
