#------------------------------------------------------------------------------
#$Date: 2023-05-18 12:25:40 +0300 (Thu, 18 May 2023) $
#$Revision: 283857 $
#$URL: file:///home/coder/svn-repositories/cod/cif/9/00/07/9000705.cif $
#------------------------------------------------------------------------------
#
# This file is available in the Crystallography Open Database (COD),
# http://www.crystallography.net/. The original data for this entry
# were provided the American Mineralogist Crystal Structure Database,
# http://rruff.geo.arizona.edu/AMS/amcsd.php
#
# The file may be used within the scientific community so long as
# proper attribution is given to the journal article from which the
# data were obtained.
#
data_9000705
loop_
_publ_author_name
'Winter, J. K.'
'Okamura, F. P.'
'Ghose, S.'
_publ_section_title
;
 A high-temperature structural study of high albite, monalbite, and the
 analbite - monalbite phase transition
 T = 980 C
 Note: this sample of feldspar is from Tiburon, Marin County, California, USA
;
_journal_name_full               'American Mineralogist'
_journal_page_first              409
_journal_page_last               423
_journal_volume                  64
_journal_year                    1979
_chemical_formula_sum            'Al Na O8 Si3'
_chemical_name_mineral           Albite
_space_group_IT_number           2
_symmetry_space_group_name_Hall  '-P 1 (1/2*x+1/2*y,1/2*x-1/2*y,-z)'
_symmetry_space_group_name_H-M   'C -1'
_cell_angle_alpha                90.8
_cell_angle_beta                 116.1
_cell_angle_gamma                90.
_cell_formula_units_Z            4
_cell_length_a                   8.259
_cell_length_b                   12.975
_cell_length_c                   7.151
_cell_volume                     688.080
_diffrn_ambient_temperature      1253.15
_exptl_crystal_density_diffrn    2.531
_cod_original_formula_sum        'Na (Si3 Al) O8'
_cod_database_code               9000705
loop_
_symmetry_equiv_pos_as_xyz
x,y,z
1/2+x,1/2+y,z
-x,-y,-z
1/2-x,1/2-y,-z
loop_
_atom_site_aniso_label
_atom_site_aniso_U_11
_atom_site_aniso_U_22
_atom_site_aniso_U_33
_atom_site_aniso_U_12
_atom_site_aniso_U_13
_atom_site_aniso_U_23
Na 0.06326 0.21999 0.15268 0.00244 0.02630 -0.02321
Si1o 0.03010 0.03325 0.02423 -0.00390 0.01230 0.00042
Al1o 0.03010 0.03325 0.02423 -0.00390 0.01230 0.00042
Si1m 0.03010 0.03325 0.02423 0.00585 0.01255 0.00169
Al1m 0.03010 0.03325 0.02423 0.00585 0.01255 0.00169
Si2o 0.02731 0.02643 0.03133 -0.00146 0.01086 0.00084
Al2o 0.02731 0.02643 0.03133 -0.00146 0.01086 0.00084
Si2m 0.02731 0.02729 0.03091 0.00292 0.01134 0.00211
Al2m 0.02731 0.02729 0.03091 0.00292 0.01134 0.00211
Oa1 0.07413 0.06139 0.03593 0.00244 0.02895 0.00169
Oa2 0.03734 0.03070 0.05076 0.00097 0.01110 0.00211
Obo 0.04960 0.07418 0.06914 -0.01414 0.03522 -0.00253
Obm 0.05072 0.07930 0.07081 0.01657 0.03739 -0.00127
Oco 0.04487 0.03922 0.06141 -0.00585 0.01906 -0.00338
Ocm 0.04459 0.03922 0.06141 0.00877 0.01616 0.00422
Odo 0.05072 0.06310 0.03697 0.00975 0.00555 0.00675
Odm 0.05239 0.06310 0.03739 -0.00877 0.00290 -0.00675
loop_
_atom_site_label
_atom_site_fract_x
_atom_site_fract_y
_atom_site_fract_z
_atom_site_occupancy
_atom_site_type_symbol
_atom_site_attached_hydrogens
Na 0.27890 0.00070 0.13860 1.00000 Na 0
Si1o 0.00820 0.17570 0.22170 0.75000 Si 0
Al1o 0.00820 0.17570 0.22170 0.25000 Al 0
Si1m 0.00740 0.81990 0.22450 0.75000 Si 0
Al1m 0.00740 0.81990 0.22450 0.25000 Al 0
Si2o 0.69520 0.11460 0.33820 0.75000 Si 0
Al2o 0.69520 0.11460 0.33820 0.25000 Al 0
Si2m 0.69440 0.88240 0.34480 0.75000 Si 0
Al2m 0.69440 0.88240 0.34480 0.25000 Al 0
Oa1 0.00070 0.13900 0.99700 1.00000 O 0
Oa2 0.60510 0.99820 0.28430 1.00000 O 0
Obo 0.82310 0.13020 0.21990 1.00000 O 0
Obm 0.82330 0.86080 0.22930 1.00000 O 0
Oco 0.02430 0.30120 0.25960 1.00000 O 0
Ocm 0.02480 0.69430 0.24770 1.00000 O 0
Odo 0.18940 0.12110 0.40220 1.00000 O 0
Odm 0.18810 0.87410 0.40950 1.00000 O 0
loop_
_cod_changelog_entry_id
_cod_changelog_entry_author
_cod_changelog_entry_date
_cod_changelog_entry_text
1
;cod-tools version 3.8.0
Id: cif_guess_AMCSD_atom_types 9581 2023-05-17 12:35:41Z saulius
;
2023-05-18T11:36:27+03:00
;Derived atom types and hydrogen counts
from atom names that follow the AMCSD naming convention
(Wat == water, O-H == hydroxyl).
;
