#------------------------------------------------------------------------------
#$Date: 2024-04-18 18:56:43 +0300 (Thu, 18 Apr 2024) $
#$Revision: 291269 $
#$URL: file:///home/coder/svn-repositories/cod/cif/9/00/05/9000512.cif $
#------------------------------------------------------------------------------
#
# This file is available in the Crystallography Open Database (COD),
# http://www.crystallography.net/. The original data for this entry
# were provided the American Mineralogist Crystal Structure Database,
# http://rruff.geo.arizona.edu/AMS/amcsd.php
#
# The file may be used within the scientific community so long as
# proper attribution is given to the journal article from which the
# data were obtained.
#
data_9000512
loop_
_publ_author_name
'Taylor, M.'
'Brown, G. E.'
_publ_section_title
;
 High-temperature structural study of the P2_1/a - A2/a phase transition in
 synthetic titanite, CaTiSiO5
 T = 515 deg C
;
_journal_name_full               'American Mineralogist'
_journal_page_first              435
_journal_page_last               447
_journal_volume                  61
_journal_year                    1976
_chemical_formula_sum            'Ca O5 Si Ti'
_chemical_name_mineral           Titanite
_space_group_IT_number           15
_symmetry_space_group_name_Hall  '-A 2yab'
_symmetry_space_group_name_H-M   'A 1 2/n 1'
_cell_angle_alpha                90
_cell_angle_beta                 113.68
_cell_angle_gamma                90
_cell_length_a                   7.077
_cell_length_b                   8.743
_cell_length_c                   6.584
_cell_formula_units_Z            4
_cell_volume                     373.080
_database_code_amcsd             0000523
_diffrn_ambient_temperature      788.15
_exptl_crystal_density_diffrn    3.490
_cod_original_sg_symbol_H-M      'A 1 2/a 1'
_cod_original_formula_sum        'Ca Ti Si O5'
_cod_database_code               9000512
loop_
_space_group_symop_operation_xyz
x,y,z
x,1/2+y,1/2+z
1/2+x,1/2-y,z
1/2+x,-y,1/2+z
1/2-x,y,1/2-z
1/2-x,1/2+y,-z
-x,1/2-y,1/2-z
-x,-y,-z
loop_
_atom_site_label
_atom_site_fract_x
_atom_site_fract_y
_atom_site_fract_z
_atom_site_U_iso_or_equiv
Ca 0.25000 0.41870 0.25000 0.03052
Ti 0.50000 0.25000 0.75000 0.01596
Si 0.75000 0.43300 0.25000 0.00963
O1 0.75000 0.32120 0.75000 0.01748
O2 0.91020 0.31660 0.43460 0.01735
O3 0.38160 0.46030 0.64770 0.01634
loop_
_cod_related_entry_id
_cod_related_entry_database
_cod_related_entry_code
1 AMCSD 0000523
