#------------------------------------------------------------------------------
#$Date: 2023-05-18 12:25:40 +0300 (Thu, 18 May 2023) $
#$Revision: 283857 $
#$URL: file:///home/coder/svn-repositories/cod/cif/9/00/05/9000530.cif $
#------------------------------------------------------------------------------
#
# This file is available in the Crystallography Open Database (COD),
# http://www.crystallography.net/. The original data for this entry
# were provided the American Mineralogist Crystal Structure Database,
# http://rruff.geo.arizona.edu/AMS/amcsd.php
#
# The file may be used within the scientific community so long as
# proper attribution is given to the journal article from which the
# data were obtained.
#
data_9000530
loop_
_publ_author_name
'Prewitt, C. T.'
'Sueno, S.'
'Papike, J. J.'
_publ_section_title
;
 The crystal structures of high albite and monalbite at high temperatures
 T = 1090 deg C
 feldspar
;
_journal_name_full               'American Mineralogist'
_journal_page_first              1213
_journal_page_last               1225
_journal_volume                  61
_journal_year                    1976
_chemical_formula_sum            'Al Na O8 Si3'
_chemical_name_mineral           Albite
_space_group_IT_number           2
_symmetry_space_group_name_Hall  '-P 1 (1/2*x+1/2*y,1/2*x-1/2*y,-z)'
_symmetry_space_group_name_H-M   'C -1'
_cell_angle_alpha                90.097
_cell_angle_beta                 116.092
_cell_angle_gamma                89.988
_cell_formula_units_Z            4
_cell_length_a                   8.2763
_cell_length_b                   12.9593
_cell_length_c                   7.1463
_cell_volume                     688.363
_diffrn_ambient_temperature      1363.15
_exptl_crystal_density_diffrn    2.530
_cod_original_formula_sum        'Na (Si3 Al) O8'
_cod_database_code               9000530
loop_
_symmetry_equiv_pos_as_xyz
x,y,z
1/2+x,1/2+y,z
-x,-y,-z
1/2-x,1/2-y,-z
loop_
_atom_site_label
_atom_site_fract_x
_atom_site_fract_y
_atom_site_fract_z
_atom_site_occupancy
_atom_site_U_iso_or_equiv
_atom_site_type_symbol
_atom_site_attached_hydrogens
Na 0.27930 0.00000 0.13770 1.00000 0.16047 Na 0
Si1o 0.00840 0.17820 0.22270 0.75000 0.03192 Si 0
Al1o 0.00840 0.17820 0.22270 0.25000 0.03192 Al 0
Si1m 0.00800 0.82150 0.22320 0.75000 0.03179 Si 0
Al1m 0.00800 0.82150 0.22320 0.25000 0.03179 Al 0
Si2o 0.69620 0.11600 0.34180 0.75000 0.03204 Si 0
Al2o 0.69620 0.11600 0.34180 0.25000 0.03204 Al 0
Si2m 0.69610 0.88380 0.34280 0.75000 0.03154 Si 0
Al2m 0.69610 0.88380 0.34280 0.25000 0.03154 Al 0
Oa1 -0.00050 0.13890 0.99870 1.00000 0.05547 O 0
Oa2 0.60550 0.99980 0.28470 1.00000 0.04382 O 0
Obo 0.82350 0.13360 0.22400 1.00000 0.06776 O 0
Obm 0.82330 0.86510 0.22570 1.00000 0.06662 O 0
Oco 0.02630 0.30390 0.25360 1.00000 0.05851 O 0
Ocm 0.02610 0.69580 0.25210 1.00000 0.05915 O 0
Odo 0.18790 0.12330 0.40420 1.00000 0.05636 O 0
Odm 0.18790 0.87580 0.40610 1.00000 0.05687 O 0
loop_
_cod_changelog_entry_id
_cod_changelog_entry_author
_cod_changelog_entry_date
_cod_changelog_entry_text
1
;cod-tools version 3.8.0
Id: cif_guess_AMCSD_atom_types 9581 2023-05-17 12:35:41Z saulius
;
2023-05-18T11:36:23+03:00
;Derived atom types and hydrogen counts
from atom names that follow the AMCSD naming convention
(Wat == water, O-H == hydroxyl).
;
