#------------------------------------------------------------------------------
#$Date: 2024-04-18 18:56:43 +0300 (Thu, 18 Apr 2024) $
#$Revision: 291269 $
#$URL: file:///home/coder/svn-repositories/cod/cif/9/00/04/9000416.cif $
#------------------------------------------------------------------------------
#
# This file is available in the Crystallography Open Database (COD),
# http://www.crystallography.net/. The original data for this entry
# were provided the American Mineralogist Crystal Structure Database,
# http://rruff.geo.arizona.edu/AMS/amcsd.php
#
# The file may be used within the scientific community so long as
# proper attribution is given to the journal article from which the
# data were obtained.
#
data_9000416
loop_
_publ_author_name
'Smyth, J. R.'
_publ_section_title
;
 The high temperature crystal chemistry of clinohypersthene
 T = 825 C
;
_journal_name_full               'American Mineralogist'
_journal_page_first              1069
_journal_page_last               1082
_journal_volume                  59
_journal_year                    1974
_chemical_formula_sum            'Ca0.032 Fe1.332 Mg0.636 O6 Si2'
_chemical_name_mineral           Clinohypersthene
_space_group_IT_number           15
_symmetry_space_group_name_Hall  '-C 2yc'
_symmetry_space_group_name_H-M   'C 1 2/c 1'
_cell_angle_alpha                90
_cell_angle_beta                 110.15
_cell_angle_gamma                90
_cell_length_a                   9.870
_cell_length_b                   9.054
_cell_length_c                   5.328
_cell_formula_units_Z            4
_cell_volume                     446.984
_database_code_amcsd             0000426
_diffrn_ambient_temperature      1098.15
_exptl_crystal_density_diffrn    3.615
_cod_original_formula_sum        'Mg.636 Fe1.332 Ca.032 Si2 O6'
_cod_database_code               9000416
loop_
_space_group_symop_operation_xyz
x,y,z
1/2+x,1/2+y,z
x,-y,1/2+z
1/2+x,1/2-y,1/2+z
-x,y,1/2-z
1/2-x,1/2+y,1/2-z
-x,-y,-z
1/2-x,1/2-y,-z
loop_
_atom_site_aniso_label
_atom_site_aniso_U_11
_atom_site_aniso_U_22
_atom_site_aniso_U_33
_atom_site_aniso_U_12
_atom_site_aniso_U_13
_atom_site_aniso_U_23
Mg1 0.03042 0.02723 0.01731 0.00000 0.00718 0.00000
Fe1 0.03042 0.02723 0.01731 0.00000 0.00718 0.00000
Fe2 0.04399 0.03276 0.02387 0.00000 0.00676 0.00000
Mg2 0.04399 0.03276 0.02387 0.00000 0.00676 0.00000
Ca2 0.04399 0.03276 0.02387 0.00000 0.00676 0.00000
Si 0.02414 0.01994 0.01767 -0.00302 0.00930 -0.00161
O1 0.02509 0.01964 0.02391 -0.00013 0.00876 -0.00050
O2 0.04596 0.02703 0.03359 -0.00599 0.02158 -0.01078
O3 0.02490 0.07297 0.02737 -0.00374 0.01878 -0.01634
loop_
_atom_site_label
_atom_site_fract_x
_atom_site_fract_y
_atom_site_fract_z
_atom_site_occupancy
_atom_site_U_iso_or_equiv
Mg1 0.00000 0.90140 0.25000 0.50300 0.02520
Fe1 0.00000 0.90140 0.25000 0.49700 0.02520
Fe2 0.00000 0.26300 0.25000 0.83500 0.03496
Mg2 0.00000 0.26300 0.25000 0.13300 0.03496
Ca2 0.00000 0.26300 0.25000 0.03200 0.03496
Si 0.29670 0.08930 0.26980 1.00000 0.02001
O1 0.12400 0.09010 0.15670 1.00000 0.02280
O2 0.37830 0.24030 0.36190 1.00000 0.03420
O3 0.35100 0.00980 0.04930 1.00000 0.04179
loop_
_cod_related_entry_id
_cod_related_entry_database
_cod_related_entry_code
1 AMCSD 0000426
