#------------------------------------------------------------------------------
#$Date: 2024-04-18 18:56:43 +0300 (Thu, 18 Apr 2024) $
#$Revision: 291269 $
#$URL: file:///home/coder/svn-repositories/cod/cif/9/00/06/9000640.cif $
#------------------------------------------------------------------------------
#
# This file is available in the Crystallography Open Database (COD),
# http://www.crystallography.net/. The original data for this entry
# were provided the American Mineralogist Crystal Structure Database,
# http://rruff.geo.arizona.edu/AMS/amcsd.php
#
# The file may be used within the scientific community so long as
# proper attribution is given to the journal article from which the
# data were obtained.
#
data_9000640
loop_
_publ_author_name
'Lager, G. A.'
'Meagher, E. P.'
_publ_section_title
;
 High-temperature structural study of six olivines
 T = 600 deg C
;
_journal_name_full               'American Mineralogist'
_journal_page_first              365
_journal_page_last               377
_journal_volume                  63
_journal_year                    1978
_chemical_formula_sum            'Ca0.98 Mg0.1 Mn0.87 O4 Si Zn0.05'
_chemical_name_mineral           Glaucochroite
_space_group_IT_number           62
_symmetry_space_group_name_Hall  '-P 2c 2ab'
_symmetry_space_group_name_H-M   'P b n m'
_cell_angle_alpha                90
_cell_angle_beta                 90
_cell_angle_gamma                90
_cell_length_a                   4.937
_cell_length_b                   11.212
_cell_length_c                   6.532
_cell_formula_units_Z            4
_cell_volume                     361.570
_database_code_amcsd             0000652
_diffrn_ambient_temperature      873.15
_exptl_crystal_density_diffrn    3.396
_cod_original_formula_sum        'Mn.87 Mg.1 Zn.05 Ca.98 Si O4'
_cod_database_code               9000640
loop_
_space_group_symop_operation_xyz
x,y,z
x,y,1/2-z
-x,-y,1/2+z
1/2+x,1/2-y,1/2+z
1/2-x,1/2+y,1/2-z
1/2-x,1/2+y,z
1/2+x,1/2-y,-z
-x,-y,-z
loop_
_atom_site_aniso_label
_atom_site_aniso_U_11
_atom_site_aniso_U_22
_atom_site_aniso_U_33
_atom_site_aniso_U_12
_atom_site_aniso_U_13
_atom_site_aniso_U_23
Mn1 0.02457 0.02930 0.02032 -0.00337 -0.00474 -0.00371
Mg1 0.02457 0.02930 0.02032 -0.00337 -0.00474 -0.00371
Zn1 0.02457 0.02930 0.02032 -0.00337 -0.00474 -0.00371
Ca2 0.02161 0.01719 0.01751 0.00168 0.00000 0.00000
Mn2 0.02161 0.01719 0.01751 0.00168 0.00000 0.00000
Si 0.01828 0.01719 0.01383 -0.00168 0.00000 0.00000
O1 0.01803 0.02484 0.02659 0.00337 0.00000 0.00000
O2 0.02754 0.01974 0.02140 0.00056 0.00000 0.00000
O3 0.02149 0.01974 0.02464 -0.00028 0.00065 0.00445
loop_
_atom_site_label
_atom_site_fract_x
_atom_site_fract_y
_atom_site_fract_z
_atom_site_occupancy
Mn1 0.00000 0.00000 0.00000 0.85000
Mg1 0.00000 0.00000 0.00000 0.10000
Zn1 0.00000 0.00000 0.00000 0.05000
Ca2 0.98050 0.27970 0.25000 0.98000
Mn2 0.98050 0.27970 0.25000 0.02000
Si 0.41560 0.08800 0.25000 1.00000
O1 0.74290 0.08400 0.25000 1.00000
O2 0.23120 0.45550 0.25000 1.00000
O3 0.28190 0.15390 0.05190 1.00000
loop_
_cod_related_entry_id
_cod_related_entry_database
_cod_related_entry_code
1 AMCSD 0000652
