#------------------------------------------------------------------------------
#$Date: 2023-05-18 12:25:40 +0300 (Thu, 18 May 2023) $
#$Revision: 283857 $
#$URL: file:///home/coder/svn-repositories/cod/cif/9/00/07/9000704.cif $
#------------------------------------------------------------------------------
#
# This file is available in the Crystallography Open Database (COD),
# http://www.crystallography.net/. The original data for this entry
# were provided the American Mineralogist Crystal Structure Database,
# http://rruff.geo.arizona.edu/AMS/amcsd.php
#
# The file may be used within the scientific community so long as
# proper attribution is given to the journal article from which the
# data were obtained.
#
data_9000704
loop_
_publ_author_name
'Winter, J. K.'
'Okamura, F. P.'
'Ghose, S.'
_publ_section_title
;
 A high-temperature structural study of high albite, monalbite, and the
 analbite - monalbite phase transition
 T = 750 C
 Note: this sample of feldspar is from Tiburon, Marin County, California, USA
;
_journal_name_full               'American Mineralogist'
_journal_page_first              409
_journal_page_last               423
_journal_volume                  64
_journal_year                    1979
_chemical_formula_sum            'Al Na O8 Si3'
_chemical_name_mineral           Albite
_space_group_IT_number           2
_symmetry_space_group_name_Hall  '-P 1 (1/2*x+1/2*y,1/2*x-1/2*y,-z)'
_symmetry_space_group_name_H-M   'C -1'
_cell_angle_alpha                92
_cell_angle_beta                 116.17
_cell_angle_gamma                90.06
_cell_formula_units_Z            4
_cell_length_a                   8.234
_cell_length_b                   12.955
_cell_length_c                   7.143
_cell_volume                     683.315
_diffrn_ambient_temperature      1023.15
_exptl_crystal_density_diffrn    2.549
_cod_original_formula_sum        'Na (Si3 Al) O8'
_cod_database_code               9000704
loop_
_symmetry_equiv_pos_as_xyz
x,y,z
1/2+x,1/2+y,z
-x,-y,-z
1/2-x,1/2-y,-z
loop_
_atom_site_aniso_label
_atom_site_aniso_U_11
_atom_site_aniso_U_22
_atom_site_aniso_U_33
_atom_site_aniso_U_12
_atom_site_aniso_U_13
_atom_site_aniso_U_23
Na 0.05227 0.20374 0.13346 0.00533 0.02038 -0.05587
Si1o 0.02600 0.02717 0.02058 -0.00339 0.01055 0.00084
Al1o 0.02600 0.02717 0.02058 -0.00339 0.01055 0.00084
Si1m 0.02572 0.02717 0.02037 0.00533 0.01055 0.00252
Al1m 0.02572 0.02717 0.02037 0.00533 0.01055 0.00252
Si2o 0.02296 0.02207 0.02640 -0.00097 0.00887 0.00168
Al2o 0.02296 0.02207 0.02640 -0.00097 0.00887 0.00168
Si2m 0.02323 0.02122 0.02661 0.00291 0.00983 0.00252
Al2m 0.02323 0.02122 0.02661 0.00291 0.00983 0.00252
Oa1 0.06416 0.05009 0.03097 0.00194 0.02638 0.00420
Oa2 0.03181 0.02632 0.04366 0.00097 0.01103 0.00420
Obo 0.04342 0.05773 0.05821 -0.01114 0.03021 0.00126
Obm 0.04591 0.06707 0.06216 0.01405 0.03429 0.00126
Oco 0.03844 0.03396 0.05301 -0.00533 0.01798 -0.00336
Ocm 0.03844 0.03311 0.04968 0.00775 0.01199 0.00462
Odo 0.04370 0.05094 0.03077 0.00872 0.00528 0.00714
Odm 0.04425 0.05348 0.03181 -0.00485 0.00288 -0.00294
loop_
_atom_site_label
_atom_site_fract_x
_atom_site_fract_y
_atom_site_fract_z
_atom_site_occupancy
_atom_site_type_symbol
_atom_site_attached_hydrogens
Na 0.27740 0.00240 0.13780 1.00000 Na 0
Si1o 0.00870 0.17180 0.21910 0.75000 Si 0
Al1o 0.00870 0.17180 0.21910 0.25000 Al 0
Si1m 0.00650 0.81730 0.22660 0.75000 Si 0
Al1m 0.00650 0.81730 0.22660 0.25000 Al 0
Si2o 0.69410 0.11210 0.33160 0.75000 Si 0
Al2o 0.69410 0.11210 0.33160 0.25000 Al 0
Si2m 0.69200 0.88040 0.34910 0.75000 Si 0
Al2m 0.69200 0.88040 0.34910 0.25000 Al 0
Oa1 0.00260 0.13830 0.99160 1.00000 O 0
Oa2 0.60130 0.99490 0.28230 1.00000 O 0
Obo 0.82310 0.12230 0.21230 1.00000 O 0
Obm 0.82250 0.85460 0.23730 1.00000 O 0
Oco 0.02200 0.29720 0.26670 1.00000 O 0
Ocm 0.02330 0.69090 0.23650 1.00000 O 0
Odo 0.19130 0.11740 0.39620 1.00000 O 0
Odm 0.18850 0.87100 0.41600 1.00000 O 0
loop_
_cod_changelog_entry_id
_cod_changelog_entry_author
_cod_changelog_entry_date
_cod_changelog_entry_text
1
;cod-tools version 3.8.0
Id: cif_guess_AMCSD_atom_types 9581 2023-05-17 12:35:41Z saulius
;
2023-05-18T11:36:27+03:00
;Derived atom types and hydrogen counts
from atom names that follow the AMCSD naming convention
(Wat == water, O-H == hydroxyl).
;
