#------------------------------------------------------------------------------
#$Date: 2023-05-10 20:44:19 +0300 (Wed, 10 May 2023) $
#$Revision: 283658 $
#$URL: file:///home/coder/svn-repositories/cod/cif/9/00/08/9000891.cif $
#------------------------------------------------------------------------------
#
# This file is available in the Crystallography Open Database (COD),
# http://www.crystallography.net/. The original data for this entry
# were provided the American Mineralogist Crystal Structure Database,
# http://rruff.geo.arizona.edu/AMS/amcsd.php
#
# The file may be used within the scientific community so long as
# proper attribution is given to the journal article from which the
# data were obtained.
#
data_9000891
loop_
_publ_author_name
'Gatehouse, B. M.'
'Grey, I. E.'
'Nickel, E. H.'
_publ_section_title
;
 The crystal chemistry of nolanite, (V,Fe,Ti,Al)10O14(OH)2, from Kalgoorlie,
 Western Australia
 sample: crystal # 1
;
_journal_name_full               'American Mineralogist'
_journal_page_first              833
_journal_page_last               839
_journal_volume                  68
_journal_year                    1983
_chemical_formula_sum            'Al0.15 Fe1.1 H O8 Ti0.3 V3.45'
_chemical_name_mineral           Nolanite
_space_group_IT_number           186
_symmetry_space_group_name_Hall  'P 6c -2c'
_symmetry_space_group_name_H-M   'P 63 m c'
_cell_angle_alpha                90
_cell_angle_beta                 90
_cell_angle_gamma                120
_cell_formula_units_Z            2
_cell_length_a                   5.890
_cell_length_b                   5.890
_cell_length_c                   9.255
_cell_volume                     278.059
_database_code_amcsd             0000910
_exptl_crystal_density_diffrn    4.594
_cod_original_formula_sum        '(V3.45 Fe1.1 Ti.3 Al.15) (O8 H)'
_cod_database_code               9000891
loop_
_space_group_symop_operation_xyz
x,y,z
-x,-x+y,1/2+z
x-y,x,1/2+z
-y,-x,z
-y,x-y,z
x-y,-y,1/2+z
-x,-y,1/2+z
x,x-y,z
-x+y,-x,z
y,x,1/2+z
y,-x+y,1/2+z
-x+y,y,z
loop_
_atom_site_label
_atom_site_fract_x
_atom_site_fract_y
_atom_site_fract_z
_atom_site_occupancy
_atom_site_type_symbol
_atom_site_attached_hydrogens
V1 0.16559 -0.16559 0.63700 0.69000 V 0
Fe1 0.16559 -0.16559 0.63700 0.22000 Fe 0
Ti1 0.16559 -0.16559 0.63700 0.06000 Ti 0
Al1 0.16559 -0.16559 0.63700 0.03000 Al 0
V2 0.33333 0.66667 0.34970 0.69000 V 0
Fe2 0.33333 0.66667 0.34970 0.22000 Fe 0
Ti2 0.33333 0.66667 0.34970 0.06000 Ti 0
Al2 0.33333 0.66667 0.34970 0.03000 Al 0
V3 0.33333 0.66667 0.95790 0.69000 V 0
Fe3 0.33333 0.66667 0.95790 0.22000 Fe 0
Ti3 0.33333 0.66667 0.95790 0.06000 Ti 0
Al3 0.33333 0.66667 0.95790 0.03000 Al 0
O-H1 0.00000 0.00000 0.01290 1.00000 O 1
O2 0.33333 0.66667 0.75210 1.00000 O 0
O3 0.16840 -0.16840 0.23950 1.00000 O 0
O4 0.51770 -0.51770 0.00360 1.00000 O 0
loop_
_cod_changelog_entry_id
_cod_changelog_entry_author
_cod_changelog_entry_date
_cod_changelog_entry_text
1
;cod-tools version 3.8.0
Id: cif_guess_AMCSD_atom_types 9574 2023-05-10 09:00:05Z saulius
;
2023-05-10T18:46:51+03:00
;Derived atom types and hydrogen counts
from atom names that follow the AMCSD naming convention
(Wat == water, O-H == hydroxyl).
;
loop_
_cod_related_entry_id
_cod_related_entry_database
_cod_related_entry_code
1 AMCSD 0000910
