#------------------------------------------------------------------------------
#$Date: 2024-04-18 18:56:43 +0300 (Thu, 18 Apr 2024) $
#$Revision: 291269 $
#$URL: file:///home/coder/svn-repositories/cod/cif/9/00/03/9000322.cif $
#------------------------------------------------------------------------------
#
# This file is available in the Crystallography Open Database (COD),
# http://www.crystallography.net/. The original data for this entry
# were provided the American Mineralogist Crystal Structure Database,
# http://rruff.geo.arizona.edu/AMS/amcsd.php
#
# The file may be used within the scientific community so long as
# proper attribution is given to the journal article from which the
# data were obtained.
#
data_9000322
loop_
_publ_author_name
'Smyth, J. R.'
'Hazen, R. M.'
_publ_section_title
;
 The crystal structures of forsterite and hortonolite at several temperatures
 up to 900 C
 T = 900 C
;
_journal_name_full               'American Mineralogist'
_journal_page_first              588
_journal_page_last               593
_journal_volume                  58
_journal_year                    1973
_chemical_compound_source        Synthetic
_chemical_formula_sum            'Mg2 O4 Si'
_chemical_name_mineral           Forsterite
_space_group_IT_number           62
_symmetry_space_group_name_Hall  '-P 2c 2ab'
_symmetry_space_group_name_H-M   'P b n m'
_cell_angle_alpha                90
_cell_angle_beta                 90
_cell_angle_gamma                90
_cell_length_a                   4.795
_cell_length_b                   10.355
_cell_length_c                   6.060
_cell_formula_units_Z            4
_cell_volume                     300.892
_database_code_amcsd             0000331
_diffrn_ambient_temperature      1173.15
_exptl_crystal_density_diffrn    3.106
_cod_original_formula_sum        'Mg2 Si O4'
_cod_database_code               9000322
loop_
_space_group_symop_operation_xyz
x,y,z
x,y,1/2-z
-x,-y,1/2+z
1/2+x,1/2-y,1/2+z
1/2-x,1/2+y,1/2-z
1/2-x,1/2+y,z
1/2+x,1/2-y,-z
-x,-y,-z
loop_
_atom_site_label
_atom_site_fract_x
_atom_site_fract_y
_atom_site_fract_z
_atom_site_U_iso_or_equiv
Mg1 0.00000 0.00000 0.00000 0.02242
Mg2 0.99240 0.27950 0.25000 0.02140
Si 0.42630 0.09430 0.25000 0.01216
O1 0.76310 0.09140 0.25000 0.02014
O2 0.21780 0.44970 0.25000 0.01773
O3 0.28430 0.16290 0.03590 0.02178
loop_
_cod_related_entry_id
_cod_related_entry_database
_cod_related_entry_code
1 AMCSD 0000331
