#------------------------------------------------------------------------------
#$Date: 2024-04-18 18:56:43 +0300 (Thu, 18 Apr 2024) $
#$Revision: 291269 $
#$URL: file:///home/coder/svn-repositories/cod/cif/9/00/09/9000955.cif $
#------------------------------------------------------------------------------
#
# This file is available in the Crystallography Open Database (COD),
# http://www.crystallography.net/. The original data for this entry
# were provided the American Mineralogist Crystal Structure Database,
# http://rruff.geo.arizona.edu/AMS/amcsd.php
#
# The file may be used within the scientific community so long as
# proper attribution is given to the journal article from which the
# data were obtained.
#
data_9000955
loop_
_publ_author_name
'Hassan, I.'
'Grundy, H. D.'
_publ_section_title
;
 The crystal structures of helvite group minerals, (MnFeZn)8(Be6Si6O24)S2
;
_journal_name_full               'American Mineralogist'
_journal_page_first              186
_journal_page_last               192
_journal_volume                  70
_journal_year                    1985
_chemical_formula_sum            'Be3 Mn3.88 O12 S Si3'
_chemical_name_mineral           Helvine
_space_group_IT_number           218
_symmetry_space_group_name_Hall  'P -4n 2 3'
_symmetry_space_group_name_H-M   'P -4 3 n'
_cell_angle_alpha                90
_cell_angle_beta                 90
_cell_angle_gamma                90
_cell_length_a                   8.291
_cell_length_b                   8.291
_cell_length_c                   8.291
_cell_formula_units_Z            2
_cell_volume                     569.929
_database_code_amcsd             0000974
_exptl_crystal_density_diffrn    3.196
_cod_original_formula_sum        'Mn3.88 O12 Be3 Si3 S'
_cod_database_code               9000955
loop_
_space_group_symop_operation_xyz
x,y,z
-z,x,-y
-y,z,-x
-x,y,-z
1/2+x,1/2-z,1/2-y
1/2+z,1/2-y,1/2-x
1/2+y,1/2-x,1/2-z
1/2+x,1/2+z,1/2+y
1/2+z,1/2+y,1/2+x
1/2+y,1/2+x,1/2+z
-z,-x,y
-y,-z,x
-x,-y,z
z,-x,-y
y,-z,-x
x,-y,-z
1/2-x,1/2+z,1/2-y
1/2-z,1/2+y,1/2-x
1/2-y,1/2+x,1/2-z
1/2-x,1/2-z,1/2+y
1/2-z,1/2-y,1/2+x
1/2-y,1/2-x,1/2+z
z,x,y
y,z,x
loop_
_atom_site_aniso_label
_atom_site_aniso_U_11
_atom_site_aniso_U_22
_atom_site_aniso_U_33
_atom_site_aniso_U_12
_atom_site_aniso_U_13
_atom_site_aniso_U_23
Mn 0.00790 0.00790 0.00790 0.00020 0.00020 0.00020
O 0.01090 0.01140 0.00770 0.00240 0.00040 -0.00240
Be 0.00690 0.00930 0.00930 0.00000 0.00000 0.00000
Si 0.00620 0.00770 0.00770 0.00000 0.00000 0.00000
S 0.01120 0.01120 0.01120 0.00000 0.00000 0.00000
loop_
_atom_site_label
_atom_site_fract_x
_atom_site_fract_y
_atom_site_fract_z
_atom_site_occupancy
Mn 0.17090 0.17090 0.17090 0.97000
O 0.14070 0.14110 0.41680 1.00000
Be 0.25000 0.00000 0.50000 1.00000
Si 0.25000 0.50000 0.00000 1.00000
S 0.00000 0.00000 0.00000 1.00000
loop_
_cod_related_entry_id
_cod_related_entry_database
_cod_related_entry_code
1 AMCSD 0000974
