#------------------------------------------------------------------------------
#$Date: 2023-05-10 20:44:19 +0300 (Wed, 10 May 2023) $
#$Revision: 283658 $
#$URL: file:///home/coder/svn-repositories/cod/cif/9/00/17/9001758.cif $
#------------------------------------------------------------------------------
#
# This file is available in the Crystallography Open Database (COD),
# http://www.crystallography.net/. The original data for this entry
# were provided the American Mineralogist Crystal Structure Database,
# http://rruff.geo.arizona.edu/AMS/amcsd.php
#
# The file may be used within the scientific community so long as
# proper attribution is given to the journal article from which the
# data were obtained.
#
data_9001758
loop_
_publ_author_name
'Brigatti, M. F.'
'Medici, L.'
'Saccani, E.'
'Vaccaro, C.'
_publ_section_title
;
 Crystal chemistry and petrologic significance of Fe3+-rich phlogopite from
 the Tapira carbonatite complex, Brazil
 Sample: Tpg63-2B
;
_journal_name_full               'American Mineralogist'
_journal_page_first              913
_journal_page_last               927
_journal_volume                  81
_journal_year                    1996
_chemical_formula_sum
'Al1.28 Ba F0.02 Fe0.87 H1.74 K Mg1.89 Mn0.03 O11.98 Si2.72 Ti0.18'
_chemical_name_mineral           Phlogopite
_space_group_IT_number           12
_symmetry_space_group_name_Hall  '-C 2y'
_symmetry_space_group_name_H-M   'C 1 2/m 1'
_cell_angle_alpha                90
_cell_angle_beta                 100.09
_cell_angle_gamma                90
_cell_formula_units_Z            2
_cell_length_a                   5.3405
_cell_length_b                   9.244
_cell_length_c                   10.253
_cell_volume                     498.337
_database_code_amcsd             0001814
_exptl_crystal_density_diffrn    3.905
_cod_original_formula_sum
'(Si2.72 Al1.28) Ti.18 Fe.87 Mg1.89 Mn.03 (K Ba) O11.98 F.02 H1.74'
_cod_database_code               9001758
loop_
_space_group_symop_operation_xyz
x,y,z
1/2+x,1/2+y,z
x,-y,z
1/2+x,1/2-y,z
-x,y,-z
1/2-x,1/2+y,-z
-x,-y,-z
1/2-x,1/2-y,-z
loop_
_atom_site_aniso_label
_atom_site_aniso_U_11
_atom_site_aniso_U_22
_atom_site_aniso_U_33
_atom_site_aniso_U_12
_atom_site_aniso_U_13
_atom_site_aniso_U_23
Si 0.01583 0.02078 0.02065 -0.00025 0.00376 0.00000
Al 0.01583 0.02078 0.02065 -0.00025 0.00376 0.00000
Ti1 0.01583 0.01948 0.02271 0.00000 0.00511 0.00000
Fe1 0.01583 0.01948 0.02271 0.00000 0.00511 0.00000
Mg1 0.01583 0.01948 0.02271 0.00000 0.00511 0.00000
Mn1 0.01583 0.01948 0.02271 0.00000 0.00511 0.00000
Ti2 0.01499 0.02121 0.02220 0.00000 0.00350 0.00000
Fe2 0.01499 0.02121 0.02220 0.00000 0.00350 0.00000
Mg2 0.01499 0.02121 0.02220 0.00000 0.00350 0.00000
Mn2 0.01499 0.02121 0.02220 0.00000 0.00350 0.00000
K 0.03922 0.04416 0.03510 0.00000 0.00565 0.00000
Ba 0.03922 0.04416 0.03510 0.00000 0.00565 0.00000
O1 0.03361 0.02944 0.02788 0.00000 0.00323 0.00000
O2 0.02717 0.03853 0.02375 -0.00542 0.00538 -0.00189
O3 0.01737 0.02208 0.02220 -0.00049 0.00430 0.00000
OH4 0.01639 0.02381 0.02065 0.00000 0.00269 0.00000
F4 0.01639 0.02381 0.02065 0.00000 0.00269 0.00000
O4 0.01639 0.02381 0.02065 0.00000 0.00269 0.00000
loop_
_atom_site_label
_atom_site_fract_x
_atom_site_fract_y
_atom_site_fract_z
_atom_site_occupancy
_atom_site_type_symbol
_atom_site_attached_hydrogens
Si 0.07560 0.16669 0.22652 0.68000 Si 0
Al 0.07560 0.16669 0.22652 0.32000 Al 0
Ti1 0.00000 0.00000 0.50000 0.06000 Ti 0
Fe1 0.00000 0.00000 0.50000 0.29000 Fe 0
Mg1 0.00000 0.00000 0.50000 0.63000 Mg 0
Mn1 0.00000 0.00000 0.50000 0.01000 Mn 0
Ti2 0.00000 0.33350 0.50000 0.06000 Ti 0
Fe2 0.00000 0.33350 0.50000 0.29000 Fe 0
Mg2 0.00000 0.33350 0.50000 0.63000 Mg 0
Mn2 0.00000 0.33350 0.50000 0.01000 Mn 0
K 0.00000 0.50000 0.00000 1.00000 K 0
Ba 0.00000 0.50000 0.00000 1.00000 Ba 0
O1 0.01600 0.00000 0.17040 1.00000 O 0
O2 0.32710 0.22930 0.16950 1.00000 O 0
O3 0.13110 0.16710 0.39100 1.00000 O 0
O-H4 0.13090 0.50000 0.39720 0.87000 O 1
F4 0.13090 0.50000 0.39720 0.01000 F 0
O4 0.13090 0.50000 0.39720 0.12000 O 0
loop_
_cod_changelog_entry_id
_cod_changelog_entry_author
_cod_changelog_entry_date
_cod_changelog_entry_text
1
;cod-tools version 3.8.0
Id: cif_guess_AMCSD_atom_types 9574 2023-05-10 09:00:05Z saulius
;
2023-05-10T18:47:41+03:00
;Derived atom types and hydrogen counts
from atom names that follow the AMCSD naming convention
(Wat == water, O-H == hydroxyl).
;
loop_
_cod_related_entry_id
_cod_related_entry_database
_cod_related_entry_code
1 AMCSD 0001814
