#------------------------------------------------------------------------------
#$Date: 2024-04-18 18:56:43 +0300 (Thu, 18 Apr 2024) $
#$Revision: 291269 $
#$URL: file:///home/coder/svn-repositories/cod/cif/9/00/13/9001307.cif $
#------------------------------------------------------------------------------
#
# This file is available in the Crystallography Open Database (COD),
# http://www.crystallography.net/. The original data for this entry
# were provided the American Mineralogist Crystal Structure Database,
# http://rruff.geo.arizona.edu/AMS/amcsd.php
#
# The file may be used within the scientific community so long as
# proper attribution is given to the journal article from which the
# data were obtained.
#
data_9001307
loop_
_publ_author_name
'Raudsepp, M.'
'Hawthorne, F. C.'
'Turnock, A. C.'
_publ_section_title
;
 Crystal chemistry of synthetic pyroxenes on the join CaNiSi2O6-CaMgSi2O6
 (diopside): A Rietveld refinement study
 sample Ni0, CaMgSi2O6
;
_journal_name_full               'American Mineralogist'
_journal_page_first              1274
_journal_page_last               1281
_journal_volume                  75
_journal_year                    1990
_chemical_formula_sum            'Ca Mg O6 Si2'
_chemical_name_mineral           Diopside
_space_group_IT_number           15
_symmetry_space_group_name_Hall  '-C 2yc'
_symmetry_space_group_name_H-M   'C 1 2/c 1'
_cell_angle_alpha                90
_cell_angle_beta                 105.939
_cell_angle_gamma                90
_cell_length_a                   9.7470
_cell_length_b                   8.9235
_cell_length_c                   5.2524
_cell_formula_units_Z            4
_cell_volume                     439.276
_database_code_amcsd             0001337
_exptl_crystal_density_diffrn    3.274
_cod_original_formula_sum        'Mg Ca Si2 O6'
_cod_database_code               9001307
loop_
_space_group_symop_operation_xyz
x,y,z
1/2+x,1/2+y,z
x,-y,1/2+z
1/2+x,1/2-y,1/2+z
-x,y,1/2-z
1/2-x,1/2+y,1/2-z
-x,-y,-z
1/2-x,1/2-y,-z
loop_
_atom_site_label
_atom_site_fract_x
_atom_site_fract_y
_atom_site_fract_z
_atom_site_U_iso_or_equiv
Mg1 0.00000 0.90710 0.25000 0.00469
Ca2 0.00000 0.29950 0.25000 0.00804
Si 0.28570 0.09430 0.23120 0.00442
O1 0.11440 0.09000 0.14200 0.00646
O2 0.36190 0.25160 0.31760 0.00823
O3 0.34990 0.01850 0.99740 0.00709
loop_
_cod_related_entry_id
_cod_related_entry_database
_cod_related_entry_code
1 AMCSD 0001337
