#------------------------------------------------------------------------------
#$Date: 2024-04-18 18:56:43 +0300 (Thu, 18 Apr 2024) $
#$Revision: 291269 $
#$URL: file:///home/coder/svn-repositories/cod/cif/9/00/10/9001006.cif $
#------------------------------------------------------------------------------
#
# This file is available in the Crystallography Open Database (COD),
# http://www.crystallography.net/. The original data for this entry
# were provided the American Mineralogist Crystal Structure Database,
# http://rruff.geo.arizona.edu/AMS/amcsd.php
#
# The file may be used within the scientific community so long as
# proper attribution is given to the journal article from which the
# data were obtained.
#
data_9001006
loop_
_publ_author_name
'Reeder, R. J.'
'Markgraf, S. A.'
_publ_section_title
;
 High-temperature crystal chemistry of dolomite
 Sample: Anisotropic refinement, Temperature = 400 deg C
;
_journal_name_full               'American Mineralogist'
_journal_page_first              795
_journal_page_last               804
_journal_volume                  71
_journal_year                    1986
_chemical_formula_sum            'C2 Ca Mg O6'
_chemical_name_mineral           Dolomite
_space_group_IT_number           148
_symmetry_space_group_name_Hall  '-R 3'
_symmetry_space_group_name_H-M   'R -3 :H'
_cell_angle_alpha                90
_cell_angle_beta                 90
_cell_angle_gamma                120
_cell_length_a                   4.8162
_cell_length_b                   4.8162
_cell_length_c                   16.132
_cell_formula_units_Z            3
_cell_volume                     324.062
_database_code_amcsd             0001028
_diffrn_ambient_temperature      673.15
_exptl_crystal_density_diffrn    2.835
_cod_original_sg_symbol_H-M      'R -3'
_cod_original_formula_sum        'Ca Mg C2 O6'
_cod_database_code               9001006
loop_
_symmetry_equiv_pos_as_xyz
x,y,z
2/3+x,1/3+y,1/3+z
1/3+x,2/3+y,2/3+z
y,-x+y,-z
2/3+y,1/3-x+y,1/3-z
1/3+y,2/3-x+y,2/3-z
-x+y,-x,z
2/3-x+y,1/3-x,1/3+z
1/3-x+y,2/3-x,2/3+z
-x,-y,-z
2/3-x,1/3-y,1/3-z
1/3-x,2/3-y,2/3-z
-y,x-y,z
2/3-y,1/3+x-y,1/3+z
1/3-y,2/3+x-y,2/3+z
x-y,x,-z
2/3+x-y,1/3+x,1/3-z
1/3+x-y,2/3+x,2/3-z
loop_
_atom_site_aniso_label
_atom_site_aniso_U_11
_atom_site_aniso_U_22
_atom_site_aniso_U_33
_atom_site_aniso_U_12
_atom_site_aniso_U_13
_atom_site_aniso_U_23
Ca 0.01983 0.01983 0.01898 0.00992 0.00000 0.00000
Mg 0.01428 0.01428 0.01885 0.00714 0.00000 0.00000
C 0.01525 0.01525 0.01556 0.00762 0.00000 0.00000
O 0.01833 0.02503 0.03032 0.01428 -0.00474 -0.00750
loop_
_atom_site_label
_atom_site_fract_x
_atom_site_fract_y
_atom_site_fract_z
Ca 0.00000 0.00000 0.00000
Mg 0.00000 0.00000 0.50000
C 0.00000 0.00000 0.24305
O 0.24570 -0.03680 0.24416
loop_
_cod_related_entry_id
_cod_related_entry_database
_cod_related_entry_code
1 AMCSD 0001028
