#------------------------------------------------------------------------------
#$Date: 2024-04-18 18:56:43 +0300 (Thu, 18 Apr 2024) $
#$Revision: 291269 $
#$URL: file:///home/coder/svn-repositories/cod/cif/9/00/18/9001814.cif $
#------------------------------------------------------------------------------
#
# This file is available in the Crystallography Open Database (COD),
# http://www.crystallography.net/. The original data for this entry
# were provided the American Mineralogist Crystal Structure Database,
# http://rruff.geo.arizona.edu/AMS/amcsd.php
#
# The file may be used within the scientific community so long as
# proper attribution is given to the journal article from which the
# data were obtained.
#
data_9001814
loop_
_publ_author_name
'Zhang, L.'
'Ahsbahs, H.'
'Hafner, S. S.'
'Kutoglu, A.'
_publ_section_title
;Single-crystal compression and crystal structure of clinopyroxene up to 10
 GPa Sample: at P = 7.6 GPa Note: cell parameters obtained by linear
 regression
;
_journal_name_full               'American Mineralogist'
_journal_page_first              245
_journal_page_last               258
_journal_volume                  82
_journal_year                    1997
_chemical_formula_sum            'Ca Fe O6 Si2'
_chemical_name_mineral           Hedenbergite
_space_group_IT_number           15
_symmetry_space_group_name_Hall  '-C 2yc'
_symmetry_space_group_name_H-M   'C 1 2/c 1'
_cell_angle_alpha                90
_cell_angle_beta                 103.89
_cell_angle_gamma                90
_cell_length_a                   9.686
_cell_length_b                   8.789
_cell_length_c                   5.141
_cell_formula_units_Z            4
_cell_volume                     424.857
_database_code_amcsd             0001870
_diffrn_ambient_pressure         7.6e+06
_exptl_crystal_density_diffrn    3.879
_cod_original_formula_sum        'Ca Fe Si2 O6'
_cod_database_code               9001814
loop_
_space_group_symop_operation_xyz
x,y,z
1/2+x,1/2+y,z
x,-y,1/2+z
1/2+x,1/2-y,1/2+z
-x,y,1/2-z
1/2-x,1/2+y,1/2-z
-x,-y,-z
1/2-x,1/2-y,-z
loop_
_atom_site_label
_atom_site_fract_x
_atom_site_fract_y
_atom_site_fract_z
_atom_site_U_iso_or_equiv
Ca 0.00000 0.30423 0.25000 0.00633
Fe 0.00000 0.90987 0.25000 0.00494
Si 0.28779 0.09454 0.23074 0.00481
O1 0.11919 0.09226 0.15276 0.00798
O2 0.36074 0.25155 0.32893 0.00988
O3 0.35303 0.02516 0.98511 0.00798
loop_
_cod_related_entry_id
_cod_related_entry_database
_cod_related_entry_code
1 AMCSD 0001870
