#------------------------------------------------------------------------------
#$Date: 2024-04-18 18:56:43 +0300 (Thu, 18 Apr 2024) $
#$Revision: 291269 $
#$URL: file:///home/coder/svn-repositories/cod/cif/9/00/18/9001879.cif $
#------------------------------------------------------------------------------
#
# This file is available in the Crystallography Open Database (COD),
# http://www.crystallography.net/
#
# All data on this site have been placed in the public domain by the
# contributors.
#
data_9001879
loop_
_publ_author_name
'Fleet M E'
'Pan Y'
_publ_section_title
;
 Site preference of rare earth elements in fluorapatite: Binary (LREE+HREE)-
 substituted crystals
 Sample: Ce,Dy-FAp
;
_journal_name_full               'American Mineralogist'
_journal_page_first              870
_journal_page_last               877
_journal_volume                  82
_journal_year                    1997
_chemical_formula_sum            'Ca5 F O12 P3'
_chemical_name_mineral           Fluorapatite
_space_group_IT_number           176
_symmetry_space_group_name_Hall  '-P 6c'
_symmetry_space_group_name_H-M   'P 63/m'
_cell_angle_alpha                90
_cell_angle_beta                 90
_cell_angle_gamma                120
_cell_length_a                   9.3874
_cell_length_b                   9.3874
_cell_length_c                   6.8920
_cell_formula_units_Z            2
_cell_volume                     525.977
_cod_original_formula_sum        'Ca5 P3 O12 F'
_cod_database_code               9001879
loop_
_symmetry_equiv_pos_as_xyz
x,y,z
-x+y,-x,1/2-z
x-y,x,1/2+z
y,-x+y,-z
-y,x-y,z
x,y,1/2-z
-x,-y,1/2+z
x-y,x,-z
-x+y,-x,z
-y,x-y,1/2-z
y,-x+y,1/2+z
-x,-y,-z
loop_
_atom_site_label
_atom_site_fract_x
_atom_site_fract_y
_atom_site_fract_z
_atom_site_U_iso_or_equiv
Ca1 0.66667 0.33333 0.00070 0.01026
Ca2 0.99103 0.24124 0.25000 0.00855
P 0.36863 0.39783 0.25000 0.00608
O1 0.48450 0.32570 0.25000 0.01191
O2 0.46650 0.58650 0.25000 0.01368
O3 0.25630 0.34080 0.07130 0.01646
F 0.00000 0.00000 0.25000 0.02938
loop_
_cod_related_entry_id
_cod_related_entry_database
_cod_related_entry_code
1 AMCSD 0001935
2 AMCSD 0001939
loop_
_[local]_alternative_name_id
_[local]_alternative_name_type
_[local]_alternative_name_source
_[local]_alternative_name_source_id
_[local]_alternative_name_value
1 mineral AMCSD 0001935 "Fluorapatite"
2 mineral AMCSD 0001939 "Apatite-(CaF)"
_amcsd_database_code 0001935
