#------------------------------------------------------------------------------
#$Date: 2024-04-18 18:56:43 +0300 (Thu, 18 Apr 2024) $
#$Revision: 291269 $
#$URL: file:///home/coder/svn-repositories/cod/cif/9/00/13/9001397.cif $
#------------------------------------------------------------------------------
#
# This file is available in the Crystallography Open Database (COD),
# http://www.crystallography.net/. The original data for this entry
# were provided the American Mineralogist Crystal Structure Database,
# http://rruff.geo.arizona.edu/AMS/amcsd.php
#
# The file may be used within the scientific community so long as
# proper attribution is given to the journal article from which the
# data were obtained.
#
data_9001397
loop_
_publ_author_name
'Wenger, M.'
'Armbruster, T.'
'Geiger, C. A.'
_publ_section_title
;
 Cation distribution in partially ordered columbite from the Kings Mountain
 pegmatite, North Carolina
 sample NCP5, T = 100 K
;
_journal_name_full               'American Mineralogist'
_journal_page_first              1897
_journal_page_last               1904
_journal_volume                  76
_journal_year                    1991
_chemical_formula_sum            'Fe0.333 Nb0.501 O2 Ta0.166'
_chemical_name_mineral           Columbite-(Fe)
_space_group_IT_number           60
_symmetry_space_group_name_Hall  '-P 2n 2ab'
_symmetry_space_group_name_H-M   'P b c n'
_cell_angle_alpha                90
_cell_angle_beta                 90
_cell_angle_gamma                90
_cell_length_a                   14.189
_cell_length_b                   5.727
_cell_length_c                   5.120
_cell_formula_units_Z            12
_cell_volume                     416.053
_database_code_amcsd             0001435
_diffrn_ambient_temperature      100
_exptl_crystal_density_diffrn    6.093
_cod_original_formula_sum        '(Nb.501 Ta.166 Fe.333) O2'
_cod_database_code               9001397
loop_
_space_group_symop_operation_xyz
x,y,z
x,-y,1/2+z
-x,y,1/2-z
1/2-x,1/2+y,z
1/2+x,1/2-y,-z
1/2+x,1/2+y,1/2-z
1/2-x,1/2-y,1/2+z
-x,-y,-z
loop_
_atom_site_aniso_label
_atom_site_aniso_U_11
_atom_site_aniso_U_22
_atom_site_aniso_U_33
_atom_site_aniso_U_12
_atom_site_aniso_U_13
_atom_site_aniso_U_23
NbA 0.01550 0.01650 0.01540 0.00000 0.00070 0.00000
TaA 0.01550 0.01650 0.01540 0.00000 0.00070 0.00000
FeA 0.01550 0.01650 0.01540 0.00000 0.00070 0.00000
NbB 0.01570 0.01310 0.01140 -0.00030 0.00020 0.00070
TaB 0.01570 0.01310 0.01140 -0.00030 0.00020 0.00070
FeB 0.01570 0.01310 0.01140 -0.00030 0.00020 0.00070
O1 0.01600 0.01200 0.01500 -0.00200 -0.00100 0.00100
O2 0.01500 0.01300 0.01400 0.00000 0.00100 -0.00400
O3 0.01700 0.01200 0.01500 0.00200 0.00300 -0.00200
loop_
_atom_site_label
_atom_site_fract_x
_atom_site_fract_y
_atom_site_fract_z
_atom_site_occupancy
_atom_site_U_iso_or_equiv
NbA 0.00000 0.33280 0.25000 0.34600 0.01583
TaA 0.00000 0.33280 0.25000 0.11500 0.01583
FeA 0.00000 0.33280 0.25000 0.53900 0.01583
NbB 0.16456 0.17114 0.74730 0.57800 0.01339
TaB 0.16456 0.17114 0.74730 0.19200 0.01339
FeB 0.16456 0.17114 0.74730 0.23000 0.01339
O1 0.09200 0.11000 0.07600 1.00000 0.01456
O2 0.42160 0.11700 0.09000 1.00000 0.01393
O3 0.75600 0.11910 0.08400 1.00000 0.01456
loop_
_cod_related_entry_id
_cod_related_entry_database
_cod_related_entry_code
1 AMCSD 0001435
