#------------------------------------------------------------------------------
#$Date: 2023-05-10 20:44:19 +0300 (Wed, 10 May 2023) $
#$Revision: 283658 $
#$URL: file:///home/coder/svn-repositories/cod/cif/9/00/17/9001762.cif $
#------------------------------------------------------------------------------
#
# This file is available in the Crystallography Open Database (COD),
# http://www.crystallography.net/. The original data for this entry
# were provided the American Mineralogist Crystal Structure Database,
# http://rruff.geo.arizona.edu/AMS/amcsd.php
#
# The file may be used within the scientific community so long as
# proper attribution is given to the journal article from which the
# data were obtained.
#
data_9001762
loop_
_publ_author_name
'Brigatti, M. F.'
'Medici, L.'
'Saccani, E.'
'Vaccaro, C.'
_publ_section_title
;
 Crystal chemistry and petrologic significance of Fe3+-rich phlogopite from
 the Tapira carbonatite complex, Brazil
 Sample: Tpq16-4A
;
_journal_name_full               'American Mineralogist'
_journal_page_first              913
_journal_page_last               927
_journal_volume                  81
_journal_year                    1996
_chemical_formula_sum
'Al0.72 F0.08 Fe0.69 H1.86 K0.99 Mg2.64 O11.92 Si2.92 Ti0.03'
_chemical_name_mineral           Phlogopite
_space_group_IT_number           12
_symmetry_space_group_name_Hall  '-C 2y'
_symmetry_space_group_name_H-M   'C 1 2/m 1'
_cell_angle_alpha                90
_cell_angle_beta                 99.96
_cell_angle_gamma                90
_cell_formula_units_Z            2
_cell_length_a                   5.338
_cell_length_b                   9.247
_cell_length_c                   10.300
_cell_volume                     500.751
_database_code_amcsd             0001818
_exptl_crystal_density_diffrn    2.907
_cod_original_formula_sum
'Si2.92 Al.72 Fe.69 Ti.03 Mg2.64 K.99 O11.92 F.08 H1.86'
_cod_database_code               9001762
loop_
_space_group_symop_operation_xyz
x,y,z
1/2+x,1/2+y,z
x,-y,z
1/2+x,1/2-y,z
-x,y,-z
1/2-x,1/2+y,-z
-x,-y,-z
1/2-x,1/2-y,-z
loop_
_atom_site_aniso_label
_atom_site_aniso_U_11
_atom_site_aniso_U_22
_atom_site_aniso_U_33
_atom_site_aniso_U_12
_atom_site_aniso_U_13
_atom_site_aniso_U_23
Si 0.01806 0.01819 0.01721 0.00025 0.00351 0.00000
Al 0.01806 0.01819 0.01721 0.00025 0.00351 0.00000
Fe 0.01806 0.01819 0.01721 0.00025 0.00351 0.00000
Ti1 0.01722 0.01689 0.01773 0.00000 0.00324 0.00000
Fe1 0.01722 0.01689 0.01773 0.00000 0.00324 0.00000
Mg1 0.01722 0.01689 0.01773 0.00000 0.00324 0.00000
Ti2 0.01652 0.01646 0.01825 0.00000 0.00351 0.00000
Fe2 0.01652 0.01646 0.01825 0.00000 0.00351 0.00000
Mg2 0.01652 0.01646 0.01825 0.00000 0.00351 0.00000
K 0.04453 0.04548 0.02763 0.00000 0.00540 0.00000
O1 0.03921 0.03119 0.02033 0.00000 0.00081 0.00000
O2 0.03375 0.03812 0.02033 -0.00591 0.00567 -0.00285
O3 0.01708 0.01776 0.01668 0.00000 0.00297 0.00000
OH4 0.01638 0.01733 0.01721 0.00000 0.00324 0.00000
F4 0.01638 0.01733 0.01721 0.00000 0.00324 0.00000
O4 0.01638 0.01733 0.01721 0.00000 0.00324 0.00000
loop_
_atom_site_label
_atom_site_fract_x
_atom_site_fract_y
_atom_site_fract_z
_atom_site_occupancy
_atom_site_type_symbol
_atom_site_attached_hydrogens
Si 0.07580 0.16666 0.22749 0.73000 Si 0
Al 0.07580 0.16666 0.22749 0.18000 Al 0
Fe 0.07580 0.16666 0.22749 0.09000 Fe 0
Ti1 0.00000 0.00000 0.50000 0.01000 Ti 0
Fe1 0.00000 0.00000 0.50000 0.11000 Fe 0
Mg1 0.00000 0.00000 0.50000 0.88000 Mg 0
Ti2 0.00000 0.33250 0.50000 0.01000 Ti 0
Fe2 0.00000 0.33250 0.50000 0.11000 Fe 0
Mg2 0.00000 0.33250 0.50000 0.88000 Mg 0
K 0.00000 0.50000 0.00000 0.99000 K 0
O1 0.01060 0.00000 0.17110 1.00000 O 0
O2 0.33010 0.22680 0.17080 1.00000 O 0
O3 0.13000 0.16700 0.39100 1.00000 O 0
O-H4 0.13270 0.50000 0.39800 0.93000 O 1
F4 0.13270 0.50000 0.39800 0.04000 F 0
O4 0.13270 0.50000 0.39800 0.03000 O 0
loop_
_cod_changelog_entry_id
_cod_changelog_entry_author
_cod_changelog_entry_date
_cod_changelog_entry_text
1
;cod-tools version 3.8.0
Id: cif_guess_AMCSD_atom_types 9574 2023-05-10 09:00:05Z saulius
;
2023-05-10T18:47:43+03:00
;Derived atom types and hydrogen counts
from atom names that follow the AMCSD naming convention
(Wat == water, O-H == hydroxyl).
;
loop_
_cod_related_entry_id
_cod_related_entry_database
_cod_related_entry_code
1 AMCSD 0001818
