#------------------------------------------------------------------------------
#$Date: 2024-04-18 18:56:43 +0300 (Thu, 18 Apr 2024) $
#$Revision: 291269 $
#$URL: file:///home/coder/svn-repositories/cod/cif/9/00/14/9001413.cif $
#------------------------------------------------------------------------------
#
# This file is available in the Crystallography Open Database (COD),
# http://www.crystallography.net/. The original data for this entry
# were provided the American Mineralogist Crystal Structure Database,
# http://rruff.geo.arizona.edu/AMS/amcsd.php
#
# The file may be used within the scientific community so long as
# proper attribution is given to the journal article from which the
# data were obtained.
#
data_9001413
loop_
_publ_author_name
'Ross, N. L.'
'Reeder, R. J.'
_publ_section_title
;
 High-pressure structural study of dolomite and ankerite
 P = 2.97 GPa
;
_journal_name_full               'American Mineralogist'
_journal_page_first              412
_journal_page_last               421
_journal_volume                  77
_journal_year                    1992
_chemical_formula_sum            'C2 Ca0.997 Fe0.676 Mg0.273 Mn0.054 O6'
_chemical_name_mineral           Ankerite
_space_group_IT_number           148
_symmetry_space_group_name_Hall  '-R 3'
_symmetry_space_group_name_H-M   'R -3 :H'
_cell_angle_alpha                90
_cell_angle_beta                 90
_cell_angle_gamma                120
_cell_length_a                   4.8070
_cell_length_b                   4.8070
_cell_length_c                   15.881
_cell_formula_units_Z            3
_cell_volume                     317.802
_database_code_amcsd             0001451
_diffrn_ambient_pressure         2.97e+06
_exptl_crystal_density_diffrn    3.250
_cod_original_sg_symbol_H-M      'R -3'
_cod_original_formula_sum        'Ca.997 Mg.273 Fe.676 Mn.054 C2 O6'
_cod_database_code               9001413
loop_
_space_group_symop_operation_xyz
x,y,z
2/3+x,1/3+y,1/3+z
1/3+x,2/3+y,2/3+z
y,-x+y,-z
2/3+y,1/3-x+y,1/3-z
1/3+y,2/3-x+y,2/3-z
-x+y,-x,z
2/3-x+y,1/3-x,1/3+z
1/3-x+y,2/3-x,2/3+z
-x,-y,-z
2/3-x,1/3-y,1/3-z
1/3-x,2/3-y,2/3-z
-y,x-y,z
2/3-y,1/3+x-y,1/3+z
1/3-y,2/3+x-y,2/3+z
x-y,x,-z
2/3+x-y,1/3+x,1/3-z
1/3+x-y,2/3+x,2/3-z
loop_
_atom_site_label
_atom_site_fract_x
_atom_site_fract_y
_atom_site_fract_z
_atom_site_occupancy
_atom_site_U_iso_or_equiv
CaA 0.00000 0.00000 0.00000 0.99700 0.01216
MgB 0.00000 0.00000 0.50000 0.27300 0.01051
FeB 0.00000 0.00000 0.50000 0.67600 0.01051
MnB 0.00000 0.00000 0.50000 0.05400 0.01051
C 0.00000 0.00000 0.24440 1.00000 0.01064
O 0.25230 -0.02910 0.24520 1.00000 0.01305
loop_
_cod_related_entry_id
_cod_related_entry_database
_cod_related_entry_code
1 AMCSD 0001451
