#------------------------------------------------------------------------------
#$Date: 2023-07-06 21:05:47 +0300 (Thu, 06 Jul 2023) $
#$Revision: 285044 $
#$URL: file:///home/coder/svn-repositories/cod/cif/9/00/27/9002720.cif $
#------------------------------------------------------------------------------
#
# This file is available in the Crystallography Open Database (COD),
# http://www.crystallography.net/. The original data for this entry
# were provided the American Mineralogist Crystal Structure Database,
# http://rruff.geo.arizona.edu/AMS/amcsd.php
#
# The file may be used within the scientific community so long as
# proper attribution is given to the journal article from which the
# data were obtained.
#
data_9002720
loop_
_publ_author_name
'Secco, L.'
'Martignago, F.'
'Dal Negro, A.'
'Reznitskii, L. Z.'
'Sklyarov, E. V.'
_publ_section_title
;
 Crystal chemistry of Cr-V-rich clinopyroxenes
 Sample 4
;
_journal_name_full               'American Mineralogist'
_journal_page_first              709
_journal_page_last               714
_journal_volume                  87
_journal_year                    2002
_chemical_formula_sum
'Al0.046 Ca0.463 Cr0.238 Mg0.461 Na0.537 O6 Si2 V0.257'
_chemical_name_mineral           Natalyite
_space_group_IT_number           15
_symmetry_space_group_name_Hall  '-C 2yc'
_symmetry_space_group_name_H-M   'C 1 2/c 1'
_cell_angle_alpha                90
_cell_angle_beta                 106.577
_cell_angle_gamma                90
_cell_formula_units_Z            4
_cell_length_a                   9.6582
_cell_length_b                   8.8273
_cell_length_c                   5.2665
_cell_volume                     430.338
_database_code_amcsd             0002809
_exptl_crystal_density_diffrn    3.411
_cod_original_formula_sum
'Si2 Al.046 Cr.238 V.257 Mg.461 (Ca.463 Na.537) O6'
_cod_database_code               9002720
loop_
_space_group_symop_operation_xyz
x,y,z
1/2+x,1/2+y,z
x,-y,1/2+z
1/2+x,1/2-y,1/2+z
-x,y,1/2-z
1/2-x,1/2+y,1/2-z
-x,-y,-z
1/2-x,1/2-y,-z
loop_
_atom_site_label
_atom_site_fract_x
_atom_site_fract_y
_atom_site_fract_z
_atom_site_occupancy
_atom_site_U_iso_or_equiv
_atom_site_type_symbol
_atom_site_attached_hydrogens
SiT 0.28912 0.09199 0.23179 0.99900 0.00432 Si 0
AlT 0.28912 0.09199 0.23179 0.00100 0.00432 Al 0
CrM1 0.00000 0.90568 0.25000 0.23800 0.00498 Cr 0
VM1 0.00000 0.90568 0.25000 0.25700 0.00498 V 0
MgM1 0.00000 0.90568 0.25000 0.46100 0.00498 Mg 0
AlM1 0.00000 0.90568 0.25000 0.04400 0.00498 Al 0
CaM2 0.00000 0.30179 0.25000 0.46300 0.00941 Ca 0
NaM2 0.00000 0.30179 0.25000 0.53700 0.00941 Na 0
O1 0.11457 0.08184 0.13966 1.00000 0.00703 O 0
O2 0.36041 0.25417 0.31028 1.00000 0.00837 O 0
O3 0.35165 0.01373 0.00211 1.00000 0.00723 O 0
loop_
_cod_changelog_entry_id
_cod_changelog_entry_author
_cod_changelog_entry_date
_cod_changelog_entry_text
1
;cod-tools version 3.8.0
Id: cif_guess_AMCSD_atom_types 9581 2023-05-17 12:35:41Z saulius
;
2023-05-23T09:15:08+03:00
;Derived atom types and hydrogen counts
from atom names that follow the AMCSD naming convention
(Wat == water, O-H == hydroxyl).
;
loop_
_cod_related_entry_id
_cod_related_entry_database
_cod_related_entry_code
1 AMCSD 0002809
