#------------------------------------------------------------------------------
#$Date: 2024-04-18 18:56:43 +0300 (Thu, 18 Apr 2024) $
#$Revision: 291269 $
#$URL: file:///home/coder/svn-repositories/cod/cif/9/00/20/9002042.cif $
#------------------------------------------------------------------------------
#
# This file is available in the Crystallography Open Database (COD),
# http://www.crystallography.net/. The original data for this entry
# were provided the American Mineralogist Crystal Structure Database,
# http://rruff.geo.arizona.edu/AMS/amcsd.php
#
# The file may be used within the scientific community so long as
# proper attribution is given to the journal article from which the
# data were obtained.
#
data_9002042
loop_
_publ_author_name
'Angel, R. J.'
'Kunz, M.'
'Miletich, R.'
'Woodland, A. B.'
'Koch, M.'
'Knoche, R. L.'
_publ_section_title
;Effect of isovalent Si,Ti substitution on the bulk moduli of Ca(Ti1-xSix)SiO5
 titanites P = 4.4 GPa
;
_journal_name_full               'American Mineralogist'
_journal_page_first              282
_journal_page_last               287
_journal_volume                  84
_journal_year                    1999
_chemical_formula_sum            'Ca O5 Si2'
_chemical_name_mineral           Titanite
_space_group_IT_number           15
_symmetry_space_group_name_Hall  '-A 2yab'
_symmetry_space_group_name_H-M   'A 1 2/n 1'
_cell_angle_alpha                90
_cell_angle_beta                 112.784
_cell_angle_gamma                90
_cell_length_a                   6.4850
_cell_length_b                   8.3431
_cell_length_c                   6.2653
_cell_formula_units_Z            4
_cell_volume                     312.534
_database_code_amcsd             0002104
_diffrn_ambient_pressure         4.4e+06
_exptl_crystal_density_diffrn    3.746
_cod_original_sg_symbol_H-M      'A 1 2/a 1'
_cod_original_formula_sum        'Ca Si2 O5'
_cod_database_code               9002042
loop_
_space_group_symop_operation_xyz
x,y,z
x,1/2+y,1/2+z
1/2+x,1/2-y,z
1/2+x,-y,1/2+z
1/2-x,y,1/2-z
1/2-x,1/2+y,-z
-x,1/2-y,1/2-z
-x,-y,-z
loop_
_atom_site_label
_atom_site_fract_x
_atom_site_fract_y
_atom_site_fract_z
Ca 0.25000 0.41940 0.25000
SiVI 0.50000 0.25000 0.75000
SiIV 0.75000 0.43780 0.25000
O1 0.75000 0.31150 0.75000
O2 0.92800 0.31910 0.44750
O3 0.39600 0.45070 0.65140
loop_
_cod_related_entry_id
_cod_related_entry_database
_cod_related_entry_code
1 AMCSD 0002104
