#------------------------------------------------------------------------------
#$Date: 2024-04-25 17:59:02 +0300 (Thu, 25 Apr 2024) $
#$Revision: 291351 $
#$URL: file:///home/coder/svn-repositories/cod/cif/9/00/24/9002433.cif $
#------------------------------------------------------------------------------
#
# This file is available in the Crystallography Open Database (COD),
# http://www.crystallography.net/
#
# All data on this site have been placed in the public domain by the
# contributors.
#
data_9002433
loop_
_publ_author_name
'Fleet M E'
'Liu X'
'Pan Y'
_publ_section_title
;
 Rare-earth elements in chlorapatite [Ca10(PO4)6(Cl)2]:
 Uptake, site preference, and degradation of monoclinic structure
 Sample: Dy-ClAp
;
_journal_name_full               'American Mineralogist'
_journal_page_first              1437
_journal_page_last               1446
_journal_volume                  85
_journal_year                    2000
_chemical_formula_sum            'Ca4.857 Cl2 Dy0.069 Na0.072 O12 P3'
_chemical_name_mineral           Chlorapatite
_space_group_IT_number           176
_symmetry_space_group_name_Hall  '-P 6c'
_symmetry_space_group_name_H-M   'P 63/m'
_cell_angle_alpha                90
_cell_angle_beta                 90
_cell_angle_gamma                120
_cell_length_a                   9.6487
_cell_length_b                   9.6487
_cell_length_c                   6.7652
_cell_formula_units_Z            2
_cell_volume                     545.442
_cod_original_formula_sum        'Ca4.857 Na.072 Dy.069 P3 O12 Cl2'
_cod_database_code               9002433
loop_
_symmetry_equiv_pos_as_xyz
x,y,z
-x+y,-x,1/2-z
x-y,x,1/2+z
y,-x+y,-z
-y,x-y,z
x,y,1/2-z
-x,-y,1/2+z
x-y,x,-z
-x+y,-x,z
-y,x-y,1/2-z
y,-x+y,1/2+z
-x,-y,-z
loop_
_atom_site_label
_atom_site_fract_x
_atom_site_fract_y
_atom_site_fract_z
_atom_site_occupancy
_atom_site_U_iso_or_equiv
Ca1 0.66667 0.33333 0.00299 0.93300 0.01520
Na1 0.66667 0.33333 0.00299 0.03600 0.01520
Dy1 0.66667 0.33333 0.00299 0.03060 0.01520
Ca2 0.00475 0.25894 0.25000 0.99700 0.01456
Dy2 0.00475 0.25894 0.25000 0.00260 0.01456
P 0.37565 0.40844 0.25000 1.00000 0.01229
O1 0.49230 0.34420 0.25000 1.00000 0.01773
O2 0.46600 0.59300 0.25000 1.00000 0.01760
O3 0.26730 0.35390 0.06750 1.00000 0.02229
Cl 0.00000 0.00000 0.44950 1.00000 0.02406
loop_
_cod_related_entry_id
_cod_related_entry_database
_cod_related_entry_code
1 AMCSD 0002518
2 AMCSD 0002522
loop_
_[local]_alternative_name_id
_[local]_alternative_name_type
_[local]_alternative_name_source
_[local]_alternative_name_source_id
_[local]_alternative_name_value
1 mineral AMCSD 0002518 "Chlorapatite"
2 mineral AMCSD 0002522 "Apatite-(CaCl)"
_amcsd_database_code 0002518
