#------------------------------------------------------------------------------
#$Date: 2024-04-25 17:59:02 +0300 (Thu, 25 Apr 2024) $
#$Revision: 291351 $
#$URL: file:///home/coder/svn-repositories/cod/cif/9/00/24/9002490.cif $
#------------------------------------------------------------------------------
#
# This file is available in the Crystallography Open Database (COD),
# http://www.crystallography.net/. The original data for this entry
# were provided the American Mineralogist Crystal Structure Database,
# http://rruff.geo.arizona.edu/AMS/amcsd.php
#
# The file may be used within the scientific community so long as
# proper attribution is given to the journal article from which the
# data were obtained.
#
data_9002490
loop_
_publ_author_name
'Pavese, A.'
'Levy, D.'
'Hoser, A.'
_publ_section_title
;
 Cation distribution in synthetic zinc ferrite (Zn0.97Fe2.02O4) from
 in situ high temperature neutron powder diffraction
 Sample at T = 800 K
;
_journal_name_full               'American Mineralogist'
_journal_page_first              1497
_journal_page_last               1502
_journal_volume                  85
_journal_year                    2000
_chemical_formula_sum            'Fe2.02 O4 Zn0.98'
_chemical_name_mineral           Franklinite
_space_group_IT_number           227
_symmetry_space_group_name_Hall  '-F 4vw 2vw 3'
_symmetry_space_group_name_H-M   'F d -3 m :2'
_cell_angle_alpha                90
_cell_angle_beta                 90
_cell_angle_gamma                90
_cell_length_a                   8.4785
_cell_length_b                   8.4785
_cell_length_c                   8.4785
_cell_formula_units_Z            8
_cell_volume                     609.477
_database_code_amcsd             0002579
_diffrn_ambient_temperature      800
_exptl_crystal_density_diffrn    5.250
_cod_original_sg_symbol_H-M      'F d 3 m'
_cod_original_formula_sum        '(Fe2.02 Zn.98) O4'
_cod_database_code               9002490
loop_
_space_group_symop_operation_xyz
x,y,z
x,1/2+y,1/2+z
1/2+x,y,1/2+z
1/2+x,1/2+y,z
3/4+z,1/2-x,1/4+y
3/4+z,-x,3/4+y
1/4+z,1/2-x,3/4+y
1/4+z,-x,1/4+y
3/4-y,1/2+z,1/4-x
3/4-y,+z,3/4-x
1/4-y,1/2+z,3/4-x
1/4-y,+z,1/4-x
3/4+x,1/2-y,1/4+z
3/4+x,-y,3/4+z
1/4+x,1/2-y,3/4+z
1/4+x,-y,1/4+z
3/4-z,1/2+x,1/4-y
3/4-z,+x,3/4-y
1/4-z,1/2+x,3/4-y
1/4-z,+x,1/4-y
3/4+y,1/2-z,1/4+x
3/4+y,-z,3/4+x
1/4+y,1/2-z,3/4+x
1/4+y,-z,1/4+x
3/4-x,1/2+y,1/4-z
3/4-x,+y,3/4-z
1/4-x,1/2+y,3/4-z
1/4-x,+y,1/4-z
1/2+x,3/4-z,1/4-y
1/2+x,1/4-z,3/4-y
+x,3/4-z,3/4-y
+x,1/4-z,1/4-y
1/2-z,3/4+y,1/4+x
1/2-z,1/4+y,3/4+x
-z,3/4+y,3/4+x
-z,1/4+y,1/4+x
1/2+y,3/4-x,1/4-z
1/2+y,1/4-x,3/4-z
+y,3/4-x,3/4-z
+y,1/4-x,1/4-z
1/2-x,3/4+z,1/4+y
1/2-x,1/4+z,3/4+y
-x,3/4+z,3/4+y
-x,1/4+z,1/4+y
1/2+z,3/4-y,1/4-x
1/2+z,1/4-y,3/4-x
+z,3/4-y,3/4-x
+z,1/4-y,1/4-x
1/2-y,3/4+x,1/4+z
1/2-y,1/4+x,3/4+z
-y,3/4+x,3/4+z
-y,1/4+x,1/4+z
x,1/2+z,1/2+y
x,+z,+y
1/2+x,1/2+z,+y
1/2+x,+z,1/2+y
-z,1/2-y,1/2-x
-z,-y,-x
1/2-z,1/2-y,-x
1/2-z,-y,1/2-x
y,1/2+x,1/2+z
y,+x,+z
1/2+y,1/2+x,+z
1/2+y,+x,1/2+z
-x,1/2-z,1/2-y
-x,-z,-y
1/2-x,1/2-z,-y
1/2-x,-z,1/2-y
z,1/2+y,1/2+x
z,+y,+x
1/2+z,1/2+y,+x
1/2+z,+y,1/2+x
-y,1/2-x,1/2-z
-y,-x,-z
1/2-y,1/2-x,-z
1/2-y,-x,1/2-z
3/4+z,1/4+x,1/2-y
3/4+z,3/4+x,-y
1/4+z,1/4+x,-y
1/4+z,3/4+x,1/2-y
3/4-y,1/4-z,1/2+x
3/4-y,3/4-z,+x
1/4-y,1/4-z,+x
1/4-y,3/4-z,1/2+x
3/4+x,1/4+y,1/2-z
3/4+x,3/4+y,-z
1/4+x,1/4+y,-z
1/4+x,3/4+y,1/2-z
3/4-z,1/4-x,1/2+y
3/4-z,3/4-x,+y
1/4-z,1/4-x,+y
1/4-z,3/4-x,1/2+y
3/4+y,1/4+z,1/2-x
3/4+y,3/4+z,-x
1/4+y,1/4+z,-x
1/4+y,3/4+z,1/2-x
3/4-x,1/4-y,1/2+z
3/4-x,3/4-y,+z
1/4-x,1/4-y,+z
1/4-x,3/4-y,1/2+z
-z,3/4+x,3/4+y
-z,1/4+x,1/4+y
1/2-z,3/4+x,1/4+y
1/2-z,1/4+x,3/4+y
y,3/4-z,3/4-x
y,1/4-z,1/4-x
1/2+y,3/4-z,1/4-x
1/2+y,1/4-z,3/4-x
-x,3/4+y,3/4+z
-x,1/4+y,1/4+z
1/2-x,3/4+y,1/4+z
1/2-x,1/4+y,3/4+z
z,3/4-x,3/4-y
z,1/4-x,1/4-y
1/2+z,3/4-x,1/4-y
1/2+z,1/4-x,3/4-y
-y,3/4+z,3/4+x
-y,1/4+z,1/4+x
1/2-y,3/4+z,1/4+x
1/2-y,1/4+z,3/4+x
x,3/4-y,3/4-z
x,1/4-y,1/4-z
1/2+x,3/4-y,1/4-z
1/2+x,1/4-y,3/4-z
1/4-x,1/2+z,3/4-y
1/4-x,+z,1/4-y
3/4-x,1/2+z,1/4-y
3/4-x,+z,3/4-y
1/4+z,1/2-y,3/4+x
1/4+z,-y,1/4+x
3/4+z,1/2-y,1/4+x
3/4+z,-y,3/4+x
1/4-y,1/2+x,3/4-z
1/4-y,+x,1/4-z
3/4-y,1/2+x,1/4-z
3/4-y,+x,3/4-z
1/4+x,1/2-z,3/4+y
1/4+x,-z,1/4+y
3/4+x,1/2-z,1/4+y
3/4+x,-z,3/4+y
1/4-z,1/2+y,3/4-x
1/4-z,+y,1/4-x
3/4-z,1/2+y,1/4-x
3/4-z,+y,3/4-x
1/4+y,1/2-x,3/4+z
1/4+y,-x,1/4+z
3/4+y,1/2-x,1/4+z
3/4+y,-x,3/4+z
3/4-x,3/4-z,y
3/4-x,1/4-z,1/2+y
1/4-x,3/4-z,1/2+y
1/4-x,1/4-z,y
3/4+z,3/4+y,-x
3/4+z,1/4+y,1/2-x
1/4+z,3/4+y,1/2-x
1/4+z,1/4+y,-x
3/4-y,3/4-x,z
3/4-y,1/4-x,1/2+z
1/4-y,3/4-x,1/2+z
1/4-y,1/4-x,z
3/4+x,3/4+z,-y
3/4+x,1/4+z,1/2-y
1/4+x,3/4+z,1/2-y
1/4+x,1/4+z,-y
3/4-z,3/4-y,x
3/4-z,1/4-y,1/2+x
1/4-z,3/4-y,1/2+x
1/4-z,1/4-y,x
3/4+y,3/4+x,-z
3/4+y,1/4+x,1/2-z
1/4+y,3/4+x,1/2-z
1/4+y,1/4+x,-z
-z,-x,-y
-z,1/2-x,1/2-y
1/2-z,-x,1/2-y
1/2-z,1/2-x,-y
y,z,x
y,1/2+z,1/2+x
1/2+y,z,1/2+x
1/2+y,1/2+z,x
-x,-y,-z
-x,1/2-y,1/2-z
1/2-x,-y,1/2-z
1/2-x,1/2-y,-z
z,x,y
z,1/2+x,1/2+y
1/2+z,x,1/2+y
1/2+z,1/2+x,y
-y,-z,-x
-y,1/2-z,1/2-x
1/2-y,-z,1/2-x
1/2-y,1/2-z,-x
loop_
_atom_site_label
_atom_site_fract_x
_atom_site_fract_y
_atom_site_fract_z
_atom_site_occupancy
_atom_site_U_iso_or_equiv
Fe 0.50000 0.50000 0.50000 0.98910 0.01520
Zn 0.50000 0.50000 0.50000 0.01090 0.01520
Fe 0.12500 0.12500 0.12500 0.04190 0.01350
Zn 0.12500 0.12500 0.12500 0.95810 0.01350
O 0.25990 0.25990 0.25990 1.00000 0.01690
loop_
_cod_related_entry_id
_cod_related_entry_database
_cod_related_entry_code
1 AMCSD 0002579
