#------------------------------------------------------------------------------
#$Date: 2024-04-25 17:59:02 +0300 (Thu, 25 Apr 2024) $
#$Revision: 291351 $
#$URL: file:///home/coder/svn-repositories/cod/cif/9/00/26/9002609.cif $
#------------------------------------------------------------------------------
#
# This file is available in the Crystallography Open Database (COD),
# http://www.crystallography.net/. The original data for this entry
# were provided the American Mineralogist Crystal Structure Database,
# http://rruff.geo.arizona.edu/AMS/amcsd.php
#
# The file may be used within the scientific community so long as
# proper attribution is given to the journal article from which the
# data were obtained.
#
data_9002609
loop_
_publ_author_name
'Henderson, C. M. B.'
'Redfern, S. A. T.'
'Smith, R. I.'
'Knight, K. S.'
'Charnock, J. M.'
_publ_section_title
;Composition and temperature dependence of cation ordering in Ni-Mg olivine
 solid solutions: A time-of-flight neutron powder diffraction and EXAFS study
 Sample: Mg50Ni50 at T = 850 C, on cooling
;
_journal_name_full               'American Mineralogist'
_journal_page_first              1170
_journal_page_last               1187
_journal_volume                  86
_journal_year                    2001
_chemical_formula_structural     MgNi(SiO4)
_chemical_formula_sum            'Mg Ni O4 Si'
_chemical_name_mineral           Olivine
_space_group_IT_number           62
_symmetry_space_group_name_Hall  '-P 2c 2ab'
_symmetry_space_group_name_H-M   'P b n m'
_cell_angle_alpha                90
_cell_angle_beta                 90
_cell_angle_gamma                90
_cell_length_a                   4.77555
_cell_length_b                   10.2926
_cell_length_c                   6.00582
_cell_formula_units_Z            4
_cell_volume                     295.203
_database_code_amcsd             0002698
_diffrn_ambient_temperature      1123.15
_exptl_crystal_density_diffrn    3.939
_cod_original_formula_sum        'Si O4 (Ni Mg)'
_cod_database_code               9002609
loop_
_space_group_symop_operation_xyz
x,y,z
x,y,1/2-z
-x,-y,1/2+z
1/2+x,1/2-y,1/2+z
1/2-x,1/2+y,1/2-z
1/2-x,1/2+y,z
1/2+x,1/2-y,-z
-x,-y,-z
loop_
_atom_site_label
_atom_site_fract_x
_atom_site_fract_y
_atom_site_fract_z
_atom_site_occupancy
_atom_site_U_iso_or_equiv
Si 0.42500 0.09220 0.25000 1.00000 0.01001
O1 0.76640 0.09360 0.25000 1.00000 0.01596
O2 0.22190 0.44760 0.25000 1.00000 0.01545
O3 0.27650 0.16180 0.03310 1.00000 0.01570
Ni1 0.00000 0.00000 0.00000 0.73800 0.01532
Mg1 0.00000 0.00000 0.00000 0.26200 0.01532
Ni2 0.99030 0.27720 0.25000 0.26200 0.01634
Mg2 0.99030 0.27720 0.25000 0.73800 0.01634
loop_
_cod_related_entry_id
_cod_related_entry_database
_cod_related_entry_code
1 AMCSD 0002698
