#------------------------------------------------------------------------------
#$Date: 2024-04-25 17:59:02 +0300 (Thu, 25 Apr 2024) $
#$Revision: 291351 $
#$URL: file:///home/coder/svn-repositories/cod/cif/9/00/29/9002919.cif $
#------------------------------------------------------------------------------
#
# This file is available in the Crystallography Open Database (COD),
# http://www.crystallography.net/. The original data for this entry
# were provided the American Mineralogist Crystal Structure Database,
# http://rruff.geo.arizona.edu/AMS/amcsd.php
#
# The file may be used within the scientific community so long as
# proper attribution is given to the journal article from which the
# data were obtained.
#
data_9002919
loop_
_publ_author_name
'Thompson, R. M.'
'Downs, R. T.'
_publ_section_title
;Model pyroxenes I: Ideal pyroxene topologies Pyroxene #10 based on stacking
 sequence ABACBABC. Ideal analogue to orthopyroxene. Note: Atoms Mg, Si, and O
 are assigned to atomic positions just for convenience.
;
_journal_name_full               'American Mineralogist'
_journal_page_first              653
_journal_page_last               666
_journal_paper_doi               10.2138/am-2003-0419
_journal_volume                  88
_journal_year                    2003
_chemical_formula_structural     Mg2(Si2O6)
_chemical_formula_sum            'Mg O3 Si'
_chemical_name_mineral           Pyroxene-ideal
_symmetry_space_group_name_H-M   'P 21 c a'
_cell_angle_alpha                90
_cell_angle_beta                 90
_cell_angle_gamma                90
_cell_length_a                   13.0639452948
_cell_length_b                   6
_cell_length_c                   3.46410161514
_cell_formula_units_Z            16
_cell_volume                     271.529
_exptl_crystal_density_diffrn    9.823
_cod_original_formula_sum        'Si Mg O3'
_cod_database_code               9002919
_cod_struct_determination_method theoretical
loop_
_symmetry_equiv_pos_as_xyz
x,y,z
x,1/2-y,1/2+z
1/2+x,y,1/2-z
1/2+x,1/2-y,-z
loop_
_atom_site_label
_atom_site_fract_x
_atom_site_fract_y
_atom_site_fract_z
SiA 0.28125 0.16667 0.58333
SiB 0.21875 0.66667 0.41667
Mg1a 0.12500 0.33333 0.41667
Mg2a 0.12500 0.00000 0.41667
SiC 0.46875 0.16667 0.25000
SiD 0.53125 0.83333 0.58333
Mg1b 0.87500 0.66667 0.75000
Mg2b 0.87500 0.50000 0.25000
O1A 0.18750 0.16667 0.58333
O2A 0.31250 0.00000 0.41667
O3A 0.31250 0.33333 0.41667
O1B 0.31250 0.66667 0.41667
O2B 0.18750 0.50000 0.58333
O3B 0.18750 0.83333 0.58333
O1C 0.56250 0.16667 0.25000
O2C 0.43750 0.00000 0.08333
O3C 0.43750 0.16667 0.58333
O1D 0.43750 0.83333 0.58333
O2D 0.56250 0.00000 0.75000
O3D 0.56250 0.83333 0.25000
_database_code_amcsd 0003008
