#------------------------------------------------------------------------------
#$Date: 2023-05-10 20:44:19 +0300 (Wed, 10 May 2023) $
#$Revision: 283658 $
#$URL: file:///home/coder/svn-repositories/cod/cif/9/00/23/9002304.cif $
#------------------------------------------------------------------------------
#
# This file is available in the Crystallography Open Database (COD),
# http://www.crystallography.net/. The original data for this entry
# were provided the American Mineralogist Crystal Structure Database,
# http://rruff.geo.arizona.edu/AMS/amcsd.php
#
# The file may be used within the scientific community so long as
# proper attribution is given to the journal article from which the
# data were obtained.
#
data_9002304
loop_
_publ_author_name
'Brigatti, M. F.'
'Frigieri, P.'
'Ghezzo c'
'Poppi, L.'
_publ_section_title
;
 Crystal chemistry of Al-rich biotites coexisting with muscovites in
 peraluminous granites
 Sample: CC1
;
_journal_name_full               'American Mineralogist'
_journal_page_first              436
_journal_page_last               448
_journal_volume                  85
_journal_year                    2000
_chemical_formula_sum
'Al1.96 Fe1.36 H1.56 K0.98 Mg0.72 Na0.02 O12 Si2.68 Ti0.16'
_chemical_name_mineral           Biotite
_space_group_IT_number           12
_symmetry_space_group_name_Hall  '-C 2y'
_symmetry_space_group_name_H-M   'C 1 2/m 1'
_cell_angle_alpha                90
_cell_angle_beta                 100.26
_cell_angle_gamma                90
_cell_formula_units_Z            2
_cell_length_a                   5.328
_cell_length_b                   9.222
_cell_length_c                   10.197
_cell_volume                     493.016
_database_code_amcsd             0002388
_exptl_crystal_density_diffrn    3.109
_cod_original_formula_sum
'Si2.68 Al1.96 Fe1.36 Mg.72 Ti.16 (Na.02 K.98) O12 H1.56'
_cod_database_code               9002304
loop_
_space_group_symop_operation_xyz
x,y,z
1/2+x,1/2+y,z
x,-y,z
1/2+x,1/2-y,z
-x,y,-z
1/2-x,1/2+y,-z
-x,-y,-z
1/2-x,1/2-y,-z
loop_
_atom_site_aniso_label
_atom_site_aniso_U_11
_atom_site_aniso_U_22
_atom_site_aniso_U_33
_atom_site_aniso_U_12
_atom_site_aniso_U_13
_atom_site_aniso_U_23
SiT 0.00470 0.00180 0.00192 0.00000 0.00060 0.00009
AlT 0.00470 0.00180 0.00192 0.00000 0.00060 0.00009
Fe1 0.00500 0.00180 0.00250 0.00000 0.00110 0.00000
Mg1 0.00500 0.00180 0.00250 0.00000 0.00110 0.00000
Fe2 0.00410 0.00232 0.00221 0.00000 0.00040 0.00000
Mg2 0.00410 0.00232 0.00221 0.00000 0.00040 0.00000
Ti2 0.00410 0.00232 0.00221 0.00000 0.00040 0.00000
Al2 0.00410 0.00232 0.00221 0.00000 0.00040 0.00000
NaA 0.02160 0.00740 0.00690 0.00000 0.00200 0.00000
KA 0.02160 0.00740 0.00690 0.00000 0.00200 0.00000
O1 0.01600 0.00340 0.00370 0.00000 -0.00100 0.00000
O2 0.01220 0.00600 0.00350 -0.00270 0.00210 -0.00060
O3 0.01080 0.00360 0.00200 -0.00020 -0.00020 0.00000
OH4 0.00900 0.00510 0.00200 0.00000 0.00000 0.00000
O4 0.00900 0.00510 0.00200 0.00000 0.00000 0.00000
loop_
_atom_site_label
_atom_site_fract_x
_atom_site_fract_y
_atom_site_fract_z
_atom_site_occupancy
_atom_site_type_symbol
_atom_site_attached_hydrogens
SiT 0.07570 0.16710 0.22650 0.67000 Si 0
AlT 0.07570 0.16710 0.22650 0.33000 Al 0
Fe1 0.00000 0.00000 0.50000 0.62000 Fe 0
Mg1 0.00000 0.00000 0.50000 0.26000 Mg 0
Fe2 0.00000 0.33340 0.50000 0.37000 Fe 0
Mg2 0.00000 0.33340 0.50000 0.23000 Mg 0
Ti2 0.00000 0.33340 0.50000 0.08000 Ti 0
Al2 0.00000 0.33340 0.50000 0.32000 Al 0
NaA 0.00000 0.50000 0.00000 0.02000 Na 0
KA 0.00000 0.50000 0.00000 0.98000 K 0
O1 0.01560 0.00000 0.17100 1.00000 O 0
O2 0.32710 0.22970 0.16890 1.00000 O 0
O3 0.13260 0.16930 0.39210 1.00000 O 0
O-H4 0.12690 0.50000 0.39770 0.78000 O 1
O4 0.12690 0.50000 0.39770 0.22000 O 0
loop_
_cod_changelog_entry_id
_cod_changelog_entry_author
_cod_changelog_entry_date
_cod_changelog_entry_text
1
;cod-tools version 3.8.0
Id: cif_guess_AMCSD_atom_types 9574 2023-05-10 09:00:05Z saulius
;
2023-05-10T18:47:59+03:00
;Derived atom types and hydrogen counts
from atom names that follow the AMCSD naming convention
(Wat == water, O-H == hydroxyl).
;
loop_
_cod_related_entry_id
_cod_related_entry_database
_cod_related_entry_code
1 AMCSD 0002388
