#------------------------------------------------------------------------------
#$Date: 2024-04-25 17:59:02 +0300 (Thu, 25 Apr 2024) $
#$Revision: 291351 $
#$URL: file:///home/coder/svn-repositories/cod/cif/9/00/26/9002619.cif $
#------------------------------------------------------------------------------
#
# This file is available in the Crystallography Open Database (COD),
# http://www.crystallography.net/. The original data for this entry
# were provided the American Mineralogist Crystal Structure Database,
# http://rruff.geo.arizona.edu/AMS/amcsd.php
#
# The file may be used within the scientific community so long as
# proper attribution is given to the journal article from which the
# data were obtained.
#
data_9002619
loop_
_publ_author_name
'Henderson, C. M. B.'
'Redfern, S. A. T.'
'Smith, R. I.'
'Knight, K. S.'
'Charnock, J. M.'
_publ_section_title
;Composition and temperature dependence of cation ordering in Ni-Mg olivine
 solid solutions: A time-of-flight neutron powder diffraction and EXAFS study
 Sample: Mg80Ni20 at T = 450 C
;
_journal_name_full               'American Mineralogist'
_journal_page_first              1170
_journal_page_last               1187
_journal_volume                  86
_journal_year                    2001
_chemical_formula_structural     Mg1.6Ni0.4(SiO4)
_chemical_formula_sum            'Mg1.6 Ni0.4 O4 Si'
_chemical_name_mineral           Olivine
_space_group_IT_number           62
_symmetry_space_group_name_Hall  '-P 2c 2ab'
_symmetry_space_group_name_H-M   'P b n m'
_cell_angle_alpha                90
_cell_angle_beta                 90
_cell_angle_gamma                90
_cell_length_a                   4.76710
_cell_length_b                   10.2573
_cell_length_c                   5.99691
_cell_formula_units_Z            4
_cell_volume                     293.234
_database_code_amcsd             0002708
_diffrn_ambient_temperature      723.15
_exptl_crystal_density_diffrn    3.498
_cod_original_formula_sum        'Si O4 (Ni.4 Mg1.6)'
_cod_database_code               9002619
loop_
_space_group_symop_operation_xyz
x,y,z
x,y,1/2-z
-x,-y,1/2+z
1/2+x,1/2-y,1/2+z
1/2-x,1/2+y,1/2-z
1/2-x,1/2+y,z
1/2+x,1/2-y,-z
-x,-y,-z
loop_
_atom_site_label
_atom_site_fract_x
_atom_site_fract_y
_atom_site_fract_z
_atom_site_occupancy
_atom_site_U_iso_or_equiv
Si 0.42560 0.09320 0.25000 1.00000 0.00608
O1 0.76590 0.09270 0.25000 1.00000 0.00950
O2 0.22230 0.44780 0.25000 1.00000 0.00963
O3 0.27660 0.16240 0.03330 1.00000 0.00988
Ni1 0.00000 0.00000 0.00000 0.34900 0.00925
Mg1 0.00000 0.00000 0.00000 0.65100 0.00925
Ni2 0.99040 0.27780 0.25000 0.05100 0.01026
Mg2 0.99040 0.27780 0.25000 0.94900 0.01026
loop_
_cod_related_entry_id
_cod_related_entry_database
_cod_related_entry_code
1 AMCSD 0002708
