#------------------------------------------------------------------------------
#$Date: 2023-05-10 20:44:19 +0300 (Wed, 10 May 2023) $
#$Revision: 283658 $
#$URL: file:///home/coder/svn-repositories/cod/cif/9/00/23/9002305.cif $
#------------------------------------------------------------------------------
#
# This file is available in the Crystallography Open Database (COD),
# http://www.crystallography.net/. The original data for this entry
# were provided the American Mineralogist Crystal Structure Database,
# http://rruff.geo.arizona.edu/AMS/amcsd.php
#
# The file may be used within the scientific community so long as
# proper attribution is given to the journal article from which the
# data were obtained.
#
data_9002305
loop_
_publ_author_name
'Brigatti, M. F.'
'Frigieri, P.'
'Ghezzo c'
'Poppi, L.'
_publ_section_title
;
 Crystal chemistry of Al-rich biotites coexisting with muscovites in
 peraluminous granites
 Sample: C3-31
;
_journal_name_full               'American Mineralogist'
_journal_page_first              436
_journal_page_last               448
_journal_volume                  85
_journal_year                    2000
_chemical_formula_sum
'Al1.84 Ba0.02 Ca0.02 Fe1.54 H1.6 K0.96 Mg0.7 Na0.03 O12 Si2.64 Ti0.2'
_chemical_name_mineral           Biotite
_space_group_IT_number           12
_symmetry_space_group_name_Hall  '-C 2y'
_symmetry_space_group_name_H-M   'C 1 2/m 1'
_cell_angle_alpha                90
_cell_angle_beta                 100.27
_cell_angle_gamma                90
_cell_formula_units_Z            2
_cell_length_a                   5.347
_cell_length_b                   9.257
_cell_length_c                   10.211
_cell_volume                     497.318
_database_code_amcsd             0002389
_exptl_crystal_density_diffrn    3.150
_cod_original_formula_sum
'Si2.64 Al1.84 Fe1.54 Mg.7 Ti.2 Na.03 (K.96 Ca.02 Ba.02) O12 H1.6'
_cod_database_code               9002305
loop_
_space_group_symop_operation_xyz
x,y,z
1/2+x,1/2+y,z
x,-y,z
1/2+x,1/2-y,z
-x,y,-z
1/2-x,1/2+y,-z
-x,-y,-z
1/2-x,1/2-y,-z
loop_
_atom_site_aniso_label
_atom_site_aniso_U_11
_atom_site_aniso_U_22
_atom_site_aniso_U_33
_atom_site_aniso_U_12
_atom_site_aniso_U_13
_atom_site_aniso_U_23
SiT 0.00700 0.00148 0.00233 0.00010 0.00077 0.00001
AlT 0.00700 0.00148 0.00233 0.00010 0.00077 0.00001
Fe1 0.00640 0.00130 0.00300 0.00000 0.00140 0.00000
Mg1 0.00640 0.00130 0.00300 0.00000 0.00140 0.00000
Fe2 0.00630 0.00218 0.00297 0.00000 0.00060 0.00000
Mg2 0.00630 0.00218 0.00297 0.00000 0.00060 0.00000
Ti2 0.00630 0.00218 0.00297 0.00000 0.00060 0.00000
Al2 0.00630 0.00218 0.00297 0.00000 0.00060 0.00000
NaA 0.02330 0.00730 0.00780 0.00000 0.00260 0.00000
KA 0.02330 0.00730 0.00780 0.00000 0.00260 0.00000
CaA 0.02330 0.00730 0.00780 0.00000 0.00260 0.00000
BaA 0.02330 0.00730 0.00780 0.00000 0.00260 0.00000
O1 0.01700 0.00260 0.00470 0.00000 0.00090 0.00000
O2 0.01480 0.00490 0.00370 -0.00320 0.00220 -0.00070
O3 0.01380 0.00280 0.00260 -0.00040 0.00080 -0.00010
OH4 0.01100 0.00440 0.00300 0.00000 0.00090 0.00000
O4 0.01100 0.00440 0.00300 0.00000 0.00090 0.00000
loop_
_atom_site_label
_atom_site_fract_x
_atom_site_fract_y
_atom_site_fract_z
_atom_site_occupancy
_atom_site_type_symbol
_atom_site_attached_hydrogens
SiT 0.07560 0.16706 0.22573 0.66000 Si 0
AlT 0.07560 0.16706 0.22573 0.34000 Al 0
Fe1 0.00000 0.00000 0.50000 0.64000 Fe 0
Mg1 0.00000 0.00000 0.50000 0.26000 Mg 0
Fe2 0.00000 0.33325 0.50000 0.45000 Fe 0
Mg2 0.00000 0.33325 0.50000 0.22000 Mg 0
Ti2 0.00000 0.33325 0.50000 0.10000 Ti 0
Al2 0.00000 0.33325 0.50000 0.24000 Al 0
NaA 0.00000 0.50000 0.00000 0.03000 Na 0
KA 0.00000 0.50000 0.00000 0.96000 K 0
CaA 0.00000 0.50000 0.00000 0.02000 Ca 0
BaA 0.00000 0.50000 0.00000 0.02000 Ba 0
O1 0.01810 0.00000 0.17000 1.00000 O 0
O2 0.32520 0.23070 0.16810 1.00000 O 0
O3 0.13220 0.16860 0.39150 1.00000 O 0
O-H4 0.12800 0.50000 0.39750 0.80000 O 1
O4 0.12800 0.50000 0.39750 0.20000 O 0
loop_
_cod_changelog_entry_id
_cod_changelog_entry_author
_cod_changelog_entry_date
_cod_changelog_entry_text
1
;cod-tools version 3.8.0
Id: cif_guess_AMCSD_atom_types 9574 2023-05-10 09:00:05Z saulius
;
2023-05-10T18:48:00+03:00
;Derived atom types and hydrogen counts
from atom names that follow the AMCSD naming convention
(Wat == water, O-H == hydroxyl).
;
loop_
_cod_related_entry_id
_cod_related_entry_database
_cod_related_entry_code
1 AMCSD 0002389
