#------------------------------------------------------------------------------
#$Date: 2023-05-10 20:44:19 +0300 (Wed, 10 May 2023) $
#$Revision: 283658 $
#$URL: file:///home/coder/svn-repositories/cod/cif/9/00/23/9002306.cif $
#------------------------------------------------------------------------------
#
# This file is available in the Crystallography Open Database (COD),
# http://www.crystallography.net/. The original data for this entry
# were provided the American Mineralogist Crystal Structure Database,
# http://rruff.geo.arizona.edu/AMS/amcsd.php
#
# The file may be used within the scientific community so long as
# proper attribution is given to the journal article from which the
# data were obtained.
#
data_9002306
loop_
_publ_author_name
'Brigatti, M. F.'
'Frigieri, P.'
'Ghezzo c'
'Poppi, L.'
_publ_section_title
;
 Crystal chemistry of Al-rich biotites coexisting with muscovites in
 peraluminous granites
 Sample: B1
;
_journal_name_full               'American Mineralogist'
_journal_page_first              436
_journal_page_last               448
_journal_volume                  85
_journal_year                    2000
_chemical_formula_sum
'Al1.9 Fe1.44 H1.54 K0.95 Mg0.84 Na0.05 O12 Si2.64 Ti0.16'
_chemical_name_mineral           Biotite
_space_group_IT_number           12
_symmetry_space_group_name_Hall  '-C 2y'
_symmetry_space_group_name_H-M   'C 1 2/m 1'
_cell_angle_alpha                90
_cell_angle_beta                 100.29
_cell_angle_gamma                90
_cell_formula_units_Z            2
_cell_length_a                   5.336
_cell_length_b                   9.239
_cell_length_c                   10.200
_cell_volume                     494.765
_database_code_amcsd             0002390
_exptl_crystal_density_diffrn    3.126
_cod_original_formula_sum
'Si2.64 Al1.9 Fe1.44 Mg.84 Ti.16 (Na.05 K.95) O12 H1.54'
_cod_database_code               9002306
loop_
_space_group_symop_operation_xyz
x,y,z
1/2+x,1/2+y,z
x,-y,z
1/2+x,1/2-y,z
-x,y,-z
1/2-x,1/2+y,-z
-x,-y,-z
1/2-x,1/2-y,-z
loop_
_atom_site_aniso_label
_atom_site_aniso_U_11
_atom_site_aniso_U_22
_atom_site_aniso_U_33
_atom_site_aniso_U_12
_atom_site_aniso_U_13
_atom_site_aniso_U_23
SiT 0.00520 0.00225 0.00248 0.00006 0.00053 0.00003
AlT 0.00520 0.00225 0.00248 0.00006 0.00053 0.00003
Fe1 0.00520 0.00191 0.00302 0.00000 0.00113 0.00000
Mg1 0.00520 0.00191 0.00302 0.00000 0.00113 0.00000
Fe2 0.00510 0.00278 0.00290 0.00000 0.00048 0.00000
Mg2 0.00510 0.00278 0.00290 0.00000 0.00048 0.00000
Ti2 0.00510 0.00278 0.00290 0.00000 0.00048 0.00000
Al2 0.00510 0.00278 0.00290 0.00000 0.00048 0.00000
NaA 0.02120 0.00780 0.00710 0.00000 0.00200 0.00000
KA 0.02120 0.00780 0.00710 0.00000 0.00200 0.00000
O1 0.01910 0.00340 0.00390 0.00000 -0.00050 0.00000
O2 0.01250 0.00660 0.00390 -0.00350 0.00160 -0.00060
O3 0.01160 0.00380 0.00260 0.00000 0.00040 0.00000
OH4 0.01010 0.00600 0.00260 0.00000 0.00000 0.00000
O4 0.01010 0.00600 0.00260 0.00000 0.00000 0.00000
loop_
_atom_site_label
_atom_site_fract_x
_atom_site_fract_y
_atom_site_fract_z
_atom_site_occupancy
_atom_site_type_symbol
_atom_site_attached_hydrogens
SiT 0.07560 0.16702 0.22575 0.66000 Si 0
AlT 0.07560 0.16702 0.22575 0.34000 Al 0
Fe1 0.00000 0.00000 0.50000 0.58000 Fe 0
Mg1 0.00000 0.00000 0.50000 0.40000 Mg 0
Fe2 0.00000 0.33318 0.50000 0.43000 Fe 0
Mg2 0.00000 0.33318 0.50000 0.22000 Mg 0
Ti2 0.00000 0.33318 0.50000 0.08000 Ti 0
Al2 0.00000 0.33318 0.50000 0.27000 Al 0
NaA 0.00000 0.50000 0.00000 0.05000 Na 0
KA 0.00000 0.50000 0.00000 0.95000 K 0
O1 0.01690 0.00000 0.17040 1.00000 O 0
O2 0.32560 0.23130 0.16850 1.00000 O 0
O3 0.13260 0.16870 0.39190 1.00000 O 0
O-H4 0.12680 0.50000 0.39780 0.77000 O 1
O4 0.12680 0.50000 0.39780 0.23000 O 0
loop_
_cod_changelog_entry_id
_cod_changelog_entry_author
_cod_changelog_entry_date
_cod_changelog_entry_text
1
;cod-tools version 3.8.0
Id: cif_guess_AMCSD_atom_types 9574 2023-05-10 09:00:05Z saulius
;
2023-05-10T18:48:00+03:00
;Derived atom types and hydrogen counts
from atom names that follow the AMCSD naming convention
(Wat == water, O-H == hydroxyl).
;
loop_
_cod_related_entry_id
_cod_related_entry_database
_cod_related_entry_code
1 AMCSD 0002390
