#------------------------------------------------------------------------------
#$Date: 2024-04-25 17:59:02 +0300 (Thu, 25 Apr 2024) $
#$Revision: 291351 $
#$URL: file:///home/coder/svn-repositories/cod/cif/9/00/27/9002762.cif $
#------------------------------------------------------------------------------
#
# This file is available in the Crystallography Open Database (COD),
# http://www.crystallography.net/. The original data for this entry
# were provided the American Mineralogist Crystal Structure Database,
# http://rruff.geo.arizona.edu/AMS/amcsd.php
#
# The file may be used within the scientific community so long as
# proper attribution is given to the journal article from which the
# data were obtained.
#
data_9002762
loop_
_publ_author_name
'Bonazzi, P.'
'Bindi, L.'
_publ_section_title
;
 Structural properties and heat-induced oxidation-dehydrogenation of
 manganoan ilvaite from perda Niedda mine, Sardinia, Italy
 Sample: PN6-600, Crystal at room temperature, annealed at 600 C for 48 hrs
;
_journal_name_full               'American Mineralogist'
_journal_page_first              845
_journal_page_last               852
_journal_volume                  87
_journal_year                    2002
_chemical_formula_sum            'Ca0.98 Fe2.28 H Mn0.74 O9 Si2'
_chemical_name_mineral           Ilvaite
_space_group_IT_number           62
_symmetry_space_group_name_Hall  '-P 2c 2n'
_symmetry_space_group_name_H-M   'P n a m'
_cell_angle_alpha                90
_cell_angle_beta                 90
_cell_angle_gamma                90
_cell_length_a                   12.993
_cell_length_b                   8.864
_cell_length_c                   5.837
_cell_formula_units_Z            4
_cell_volume                     672.247
_database_code_amcsd             0002851
_exptl_crystal_density_diffrn    4.036
_exptl_crystal_thermal_history   'annealed at 600 C for 48 hrs'
_cod_original_formula_sum        'Ca.98 Mn.74 Fe2.28 Si2 O9 H'
_cod_database_code               9002762
loop_
_space_group_symop_operation_xyz
x,y,z
x,y,1/2-z
-x,-y,1/2+z
1/2-x,1/2+y,1/2+z
1/2+x,1/2-y,1/2-z
1/2+x,1/2-y,z
1/2-x,1/2+y,-z
-x,-y,-z
loop_
_atom_site_label
_atom_site_fract_x
_atom_site_fract_y
_atom_site_fract_z
_atom_site_occupancy
_atom_site_U_iso_or_equiv
CaA 0.81602 0.37350 0.75000 0.98000 0.01020
MnA 0.81602 0.37350 0.75000 0.02000 0.01020
FeM1 0.88944 0.05336 -0.00094 1.00000 0.00860
MnM2 0.93451 0.73764 0.25000 0.72000 0.00920
FeM2 0.93451 0.73764 0.25000 0.28000 0.00920
Si1 0.96230 0.36550 0.25000 1.00000 0.00690
Si2 0.68290 0.23030 0.25000 1.00000 0.00710
O1 0.01320 0.02290 0.75000 1.00000 0.01270
O2 0.93930 0.26990 0.01510 1.00000 0.01050
O3 0.78090 0.11110 0.25000 1.00000 0.00850
O4 0.67340 0.33260 0.01840 1.00000 0.00940
O5 0.58800 0.10540 0.25000 1.00000 0.01110
O6 0.59950 0.01950 0.75000 1.00000 0.01720
O7 0.80260 0.11400 0.75000 1.00000 0.01210
H 0.78800 0.05800 0.75000 1.00000 0.07000
loop_
_cod_related_entry_id
_cod_related_entry_database
_cod_related_entry_code
1 AMCSD 0002851
