#------------------------------------------------------------------------------
#$Date: 2024-04-25 17:59:02 +0300 (Thu, 25 Apr 2024) $
#$Revision: 291351 $
#$URL: file:///home/coder/svn-repositories/cod/cif/9/00/27/9002775.cif $
#------------------------------------------------------------------------------
#
# This file is available in the Crystallography Open Database (COD),
# http://www.crystallography.net/. The original data for this entry
# were provided the American Mineralogist Crystal Structure Database,
# http://rruff.geo.arizona.edu/AMS/amcsd.php
#
# The file may be used within the scientific community so long as
# proper attribution is given to the journal article from which the
# data were obtained.
#
data_9002775
loop_
_publ_author_name
'Friedrich, A.'
'Lager, G. A.'
'Ulmer, P.'
'Kunz, M.'
'Marshall, W. G.'
_publ_section_title
;
 High-pressure single-crystal X-ray and powder neutron study of
 F,OH/OD-chondrodite: Compressibility, structure, and hydrogen bonding
 Sample: P = 2.89 GPa, Neutron
;
_journal_name_full               'American Mineralogist'
_journal_page_first              931
_journal_page_last               939
_journal_volume                  87
_journal_year                    2002
_chemical_formula_sum            'D0.9 F1.1 Mg5 O8.9 Si2'
_chemical_name_mineral           'Chondrodite (deuterated)'
_space_group_IT_number           14
_symmetry_space_group_name_Hall  '-P 2xab'
_symmetry_space_group_name_H-M   'P 21/b 1 1'
_cell_angle_alpha                109.00
_cell_angle_beta                 90
_cell_angle_gamma                90
_cell_length_a                   4.7024
_cell_length_b                   10.1742
_cell_length_c                   7.7938
_cell_volume                     352.565
_cell_formula_units_Z            2
_diffrn_ambient_pressure         2.89e+06
_exptl_crystal_density_diffrn    3.229
_cod_original_formula_sum        'Mg5 Si2 O8.9 F1.1 D.9'
_cod_database_code               9002775
loop_
_symmetry_equiv_pos_as_xyz
x,y,z
1/2-x,1/2+y,z
1/2+x,1/2-y,-z
-x,-y,-z
loop_
_atom_site_label
_atom_site_fract_x
_atom_site_fract_y
_atom_site_fract_z
_atom_site_occupancy
_atom_site_U_iso_or_equiv
MgM1 0.50000 0.00000 0.50000 1.00000 0.00340
MgM2 0.01000 0.17480 0.30500 1.00000 0.00340
MgM3 0.50100 0.88600 0.07900 1.00000 0.00340
Si 0.07670 0.14100 0.70600 1.00000 0.00400
O1 0.77400 0.00340 0.29900 1.00000 0.00630
O2 0.72900 0.23940 0.12400 1.00000 0.00630
O3 0.22300 0.16950 0.53000 1.00000 0.00630
O4 0.26600 0.85780 0.30000 1.00000 0.00630
O5 0.26300 0.05900 0.10600 0.45000 0.00200
F5 0.26300 0.05900 0.10600 0.55000 0.00200
D 0.10300 0.02200 0.02000 0.45000 0.03000
_database_code_amcsd 0002864
