#------------------------------------------------------------------------------
#$Date: 2024-04-25 17:59:02 +0300 (Thu, 25 Apr 2024) $
#$Revision: 291351 $
#$URL: file:///home/coder/svn-repositories/cod/cif/9/00/27/9002778.cif $
#------------------------------------------------------------------------------
#
# This file is available in the Crystallography Open Database (COD),
# http://www.crystallography.net/. The original data for this entry
# were provided the American Mineralogist Crystal Structure Database,
# http://rruff.geo.arizona.edu/AMS/amcsd.php
#
# The file may be used within the scientific community so long as
# proper attribution is given to the journal article from which the
# data were obtained.
#
data_9002778
loop_
_publ_author_name
'Friedrich, A.'
'Lager, G. A.'
'Ulmer, P.'
'Kunz, M.'
'Marshall, W. G.'
_publ_section_title
;
 High-pressure single-crystal X-ray and powder neutron study of
 F,OH/OD-chondrodite: Compressibility, structure, and hydrogen bonding
 Sample: P = 7.04 GPa, Neutron
;
_journal_name_full               'American Mineralogist'
_journal_page_first              931
_journal_page_last               939
_journal_volume                  87
_journal_year                    2002
_chemical_formula_sum            'D0.9 F1.1 Mg5 O8.9 Si2'
_chemical_name_mineral           'Chondrodite (deuterated)'
_space_group_IT_number           14
_symmetry_space_group_name_Hall  '-P 2xab'
_symmetry_space_group_name_H-M   'P 21/b 1 1'
_cell_angle_alpha                108.98
_cell_angle_beta                 90
_cell_angle_gamma                90
_cell_length_a                   4.6688
_cell_length_b                   10.0589
_cell_length_c                   7.7127
_cell_formula_units_Z            2
_cell_volume                     342.519
_diffrn_ambient_pressure         7.04e+06
_exptl_crystal_density_diffrn    3.324
_cod_original_formula_sum        'Mg5 Si2 O8.9 F1.1 D.9'
_cod_database_code               9002778
loop_
_symmetry_equiv_pos_as_xyz
x,y,z
1/2-x,1/2+y,z
1/2+x,1/2-y,-z
-x,-y,-z
loop_
_atom_site_label
_atom_site_fract_x
_atom_site_fract_y
_atom_site_fract_z
_atom_site_occupancy
_atom_site_U_iso_or_equiv
Mg1 0.50000 0.00000 0.50000 1.00000 0.00070
Mg2 0.01200 0.17460 0.30400 1.00000 0.00070
Mg3 0.49700 0.88780 0.07870 1.00000 0.00070
Si 0.07700 0.14190 0.70500 1.00000 0.00100
O1 0.77400 0.00280 0.29400 1.00000 0.00300
O2 0.73500 0.23910 0.12300 1.00000 0.00300
O3 0.22500 0.16960 0.52500 1.00000 0.00300
O4 0.26800 0.85650 0.29500 1.00000 0.00300
O5 0.26100 0.05700 0.10000 0.45000 0.00600
F5 0.26100 0.05700 0.10000 0.55000 0.00600
D 0.10200 0.02100 0.02700 0.45000 0.03700
_database_code_amcsd 0002867
