#------------------------------------------------------------------------------
#$Date: 2023-05-10 20:44:19 +0300 (Wed, 10 May 2023) $
#$Revision: 283658 $
#$URL: file:///home/coder/svn-repositories/cod/cif/9/00/25/9002534.cif $
#------------------------------------------------------------------------------
#
# This file is available in the Crystallography Open Database (COD),
# http://www.crystallography.net/. The original data for this entry
# were provided the American Mineralogist Crystal Structure Database,
# http://rruff.geo.arizona.edu/AMS/amcsd.php
#
# The file may be used within the scientific community so long as
# proper attribution is given to the journal article from which the
# data were obtained.
#
data_9002534
loop_
_publ_author_name
'Fechtelkord, M.'
'Stief, F.'
'Buhl, J.-C.'
_publ_section_title
;Sodium cation dynamics in nitrate cancrinite: A low and high temperature Na
 and H MAS NMR study and high temperature Rietveld structure refinement
 Sample: T = 296 K
;
_journal_name_full               'American Mineralogist'
_journal_page_first              165
_journal_page_last               175
_journal_volume                  86
_journal_year                    2001
_chemical_formula_sum            'Al3 H1.17 N0.87 Na3.96 O15.78 Si3'
_chemical_name_mineral           Cancrinite
_space_group_IT_number           173
_symmetry_space_group_name_Hall  'P 6c'
_symmetry_space_group_name_H-M   'P 63'
_cell_angle_alpha                90
_cell_angle_beta                 90
_cell_angle_gamma                120
_cell_formula_units_Z            2
_cell_length_a                   12.6666
_cell_length_b                   12.6666
_cell_length_c                   5.1808
_cell_volume                     719.859
_database_code_amcsd             0002623
_diffrn_ambient_temperature      296
_exptl_crystal_density_diffrn    2.409
_cod_original_formula_sum        'Na3.96 Si3 Al3 O15.78 N.87 H1.17'
_cod_database_code               9002534
loop_
_space_group_symop_operation_xyz
x,y,z
x-y,x,1/2+z
-y,x-y,z
-x,-y,1/2+z
-x+y,-x,z
y,-x+y,1/2+z
loop_
_atom_site_label
_atom_site_fract_x
_atom_site_fract_y
_atom_site_fract_z
_atom_site_occupancy
_atom_site_U_iso_or_equiv
_atom_site_type_symbol
_atom_site_attached_hydrogens
Na1 0.33333 0.66667 0.62700 0.99000 0.01900 Na 0
Na2 0.13400 0.27100 0.28600 0.99000 0.02100 Na 0
Si1 0.08200 0.41000 0.75000 1.00000 0.00500 Si 0
Al1 0.33700 0.41200 0.74200 1.00000 0.00500 Al 0
O1 0.20100 0.40300 0.66300 1.00000 0.00600 O 0
O2 0.11630 0.55200 0.73000 1.00000 0.00600 O 0
O3 0.03800 0.35800 0.04400 1.00000 0.00600 O 0
O4 0.32300 0.35300 0.05500 1.00000 0.00600 O 0
N1 0.00000 0.00000 0.56000 0.37000 0.01000 N 0
N2 0.00000 0.00000 0.75000 0.50000 0.01000 N 0
ON1 0.01500 0.90800 0.55000 0.37000 0.03000 O 0
ON2 0.88400 0.93900 0.80300 0.50000 0.03000 O 0
O-H1 0.62000 0.33000 0.68000 0.39000 0.03000 O 1
loop_
_cod_changelog_entry_id
_cod_changelog_entry_author
_cod_changelog_entry_date
_cod_changelog_entry_text
1
;cod-tools version 3.8.0
Id: cif_guess_AMCSD_atom_types 9574 2023-05-10 09:00:05Z saulius
;
2023-05-10T18:48:05+03:00
;Derived atom types and hydrogen counts
from atom names that follow the AMCSD naming convention
(Wat == water, O-H == hydroxyl).
;
loop_
_cod_related_entry_id
_cod_related_entry_database
_cod_related_entry_code
1 AMCSD 0002623
