#------------------------------------------------------------------------------
#$Date: 2024-04-18 18:56:43 +0300 (Thu, 18 Apr 2024) $
#$Revision: 291269 $
#$URL: file:///home/coder/svn-repositories/cod/cif/9/00/20/9002035.cif $
#------------------------------------------------------------------------------
#
# This file is available in the Crystallography Open Database (COD),
# http://www.crystallography.net/. The original data for this entry
# were provided the American Mineralogist Crystal Structure Database,
# http://rruff.geo.arizona.edu/AMS/amcsd.php
#
# The file may be used within the scientific community so long as
# proper attribution is given to the journal article from which the
# data were obtained.
#
data_9002035
loop_
_publ_author_name
'Yang, H.'
'Finger, L. W.'
'Conrad, P. G.'
'Prewitt, C. T.'
'Hazen, R. M.'
_publ_section_title
;A new pyroxene structure at high pressure: Single-crystal X-ray and Raman
 study of the Pbcn - P2_1cn phase transition in protopyroxene Sample at P =
 6.14 GPa, (Mg1.54Li.23Sc.23)Si2O6
;
_journal_name_full               'American Mineralogist'
_journal_page_first              245
_journal_page_last               256
_journal_volume                  84
_journal_year                    1999
_chemical_formula_sum            'Li0.23 Mg1.54 O6 Sc0.23 Si2'
_chemical_name_mineral           Protopyroxene
_symmetry_space_group_name_H-M   'P 21 c n'
_cell_angle_alpha                90
_cell_angle_beta                 90
_cell_angle_gamma                90
_cell_length_a                   9.0548
_cell_length_b                   8.7120
_cell_length_c                   5.1209
_cell_formula_units_Z            4
_cell_volume                     403.964
_diffrn_ambient_pressure         6.14e+06
_exptl_crystal_density_diffrn    3.314
_cod_original_formula_sum        '(Mg1.54 Sc.23) Li.23 Si2 O6'
_cod_database_code               9002035
loop_
_symmetry_equiv_pos_as_xyz
x,y,z
x,-y,1/2+z
1/2+x,1/2+y,1/2-z
1/2+x,1/2-y,-z
loop_
_atom_site_label
_atom_site_fract_x
_atom_site_fract_y
_atom_site_fract_z
_atom_site_occupancy
_atom_site_U_iso_or_equiv
Mg1 0.00000 0.09790 0.71330 0.77000 0.00646
Sc1 0.00000 0.09790 0.71330 0.23000 0.00646
Mg2 0.01040 0.26520 0.21160 0.77000 0.00823
Li2 0.01040 0.26520 0.21160 0.23000 0.00823
SiA 0.70220 0.91030 0.86080 1.00000 0.00507
SiB 0.30020 0.08800 0.06880 1.00000 0.00456
O1A 0.88050 0.90940 0.87410 1.00000 0.00507
O1B 0.12430 0.08460 0.05570 1.00000 0.00583
O2A 0.62440 0.75960 0.95980 1.00000 0.00494
O2B 0.37570 0.24970 0.10630 1.00000 0.00963
O3A 0.64680 0.95120 0.56150 1.00000 0.00975
O3B 0.36150 0.96170 0.27580 1.00000 0.00342
_database_code_amcsd 0002097
