#------------------------------------------------------------------------------
#$Date: 2024-04-25 17:59:02 +0300 (Thu, 25 Apr 2024) $
#$Revision: 291351 $
#$URL: file:///home/coder/svn-repositories/cod/cif/9/00/26/9002628.cif $
#------------------------------------------------------------------------------
#
# This file is available in the Crystallography Open Database (COD),
# http://www.crystallography.net/. The original data for this entry
# were provided the American Mineralogist Crystal Structure Database,
# http://rruff.geo.arizona.edu/AMS/amcsd.php
#
# The file may be used within the scientific community so long as
# proper attribution is given to the journal article from which the
# data were obtained.
#
data_9002628
loop_
_publ_author_name
'Henderson, C. M. B.'
'Redfern, S. A. T.'
'Smith, R. I.'
'Knight, K. S.'
'Charnock, J. M.'
_publ_section_title
;Composition and temperature dependence of cation ordering in Ni-Mg olivine
 solid solutions: A time-of-flight neutron powder diffraction and EXAFS study
 Sample: Mg80Ni20 at T = 900 C
;
_journal_name_full               'American Mineralogist'
_journal_page_first              1170
_journal_page_last               1187
_journal_volume                  86
_journal_year                    2001
_chemical_formula_structural     Mg1.6Ni0.4(SiO4)
_chemical_formula_sum            'Mg1.6 Ni0.403 O4 Si'
_chemical_name_mineral           Olivine
_space_group_IT_number           62
_symmetry_space_group_name_Hall  '-P 2c 2ab'
_symmetry_space_group_name_H-M   'P b n m'
_cell_angle_alpha                90
_cell_angle_beta                 90
_cell_angle_gamma                90
_cell_length_a                   4.78701
_cell_length_b                   10.3194
_cell_length_c                   6.03014
_cell_formula_units_Z            4
_cell_volume                     297.883
_database_code_amcsd             0002717
_diffrn_ambient_temperature      1173.15
_exptl_crystal_density_diffrn    3.448
_cod_original_formula_sum        'Si O4 Ni.403 Mg1.6'
_cod_database_code               9002628
loop_
_space_group_symop_operation_xyz
x,y,z
x,y,1/2-z
-x,-y,1/2+z
1/2+x,1/2-y,1/2+z
1/2-x,1/2+y,1/2-z
1/2-x,1/2+y,z
1/2+x,1/2-y,-z
-x,-y,-z
loop_
_atom_site_label
_atom_site_fract_x
_atom_site_fract_y
_atom_site_fract_z
_atom_site_occupancy
_atom_site_U_iso_or_equiv
Si 0.42570 0.09250 0.25000 1.00000 0.01051
O1 0.76440 0.09280 0.25000 1.00000 0.01646
O2 0.22280 0.44940 0.25000 1.00000 0.01646
O3 0.27730 0.16210 0.03410 1.00000 0.01659
Ni1 0.00000 0.00000 0.00000 0.33600 0.01608
Mg1 0.00000 0.00000 0.00000 0.66400 0.01608
Ni2 0.98910 0.27890 0.25000 0.06700 0.01824
Mg2 0.98910 0.27890 0.25000 0.93600 0.01824
loop_
_cod_related_entry_id
_cod_related_entry_database
_cod_related_entry_code
1 AMCSD 0002717
