#------------------------------------------------------------------------------
#$Date: 2024-04-18 18:56:43 +0300 (Thu, 18 Apr 2024) $
#$Revision: 291269 $
#$URL: file:///home/coder/svn-repositories/cod/cif/9/00/20/9002023.cif $
#------------------------------------------------------------------------------
#
# This file is available in the Crystallography Open Database (COD),
# http://www.crystallography.net/. The original data for this entry
# were provided the American Mineralogist Crystal Structure Database,
# http://rruff.geo.arizona.edu/AMS/amcsd.php
#
# The file may be used within the scientific community so long as
# proper attribution is given to the journal article from which the
# data were obtained.
#
data_9002023
loop_
_publ_author_name
'Yang, H.'
'Hazen, R. M.'
_publ_section_title
;
 Comparative high-pressure crystal chemistry of karrooite, MgTi2O5, with
 different ordering states
 Sample P1400, x(Ti) in M1 = .485, P = 6.20 GPa
;
_journal_name_full               'American Mineralogist'
_journal_page_first              130
_journal_page_last               137
_journal_volume                  84
_journal_year                    1999
_chemical_formula_sum            'Mg O5 Ti2'
_chemical_name_mineral           Pseudobrookite
_space_group_IT_number           63
_symmetry_space_group_name_Hall  '-B 2 2b'
_symmetry_space_group_name_H-M   'B b m m'
_cell_angle_alpha                90
_cell_angle_beta                 90
_cell_angle_gamma                90
_cell_length_a                   9.6327
_cell_length_b                   9.8302
_cell_length_c                   3.7177
_cell_formula_units_Z            4
_cell_volume                     352.034
_database_code_amcsd             0002085
_diffrn_ambient_pressure         6.2e+06
_exptl_crystal_density_diffrn    3.775
_cod_original_formula_sum        '(Mg Ti2) O5'
_cod_database_code               9002023
loop_
_space_group_symop_operation_xyz
x,y,z
1/2+x,y,1/2+z
-x,1/2+y,z
1/2-x,1/2+y,1/2+z
x,1/2-y,-z
1/2+x,1/2-y,1/2-z
x,y,-z
1/2+x,y,1/2-z
-x,-y,z
1/2-x,-y,1/2+z
x,1/2-y,z
1/2+x,1/2-y,1/2+z
-x,1/2+y,-z
1/2-x,1/2+y,1/2-z
-x,-y,-z
1/2-x,-y,1/2-z
loop_
_atom_site_label
_atom_site_fract_x
_atom_site_fract_y
_atom_site_fract_z
_atom_site_occupancy
_atom_site_U_iso_or_equiv
Mg1 0.80720 0.25000 0.00000 0.51500 0.00621
Ti1 0.80720 0.25000 0.00000 0.48500 0.00621
Ti2 0.13580 0.43650 0.00000 0.75750 0.00671
Mg2 0.13580 0.43650 0.00000 0.24250 0.00671
O1 0.23440 0.25000 0.00000 1.00000 0.00899
O2 0.04740 0.88290 0.00000 1.00000 0.00836
O3 0.31280 0.93100 0.00000 1.00000 0.00874
loop_
_cod_related_entry_id
_cod_related_entry_database
_cod_related_entry_code
1 AMCSD 0002085
