#------------------------------------------------------------------------------
#$Date: 2024-04-25 17:59:02 +0300 (Thu, 25 Apr 2024) $
#$Revision: 291351 $
#$URL: file:///home/coder/svn-repositories/cod/cif/9/00/24/9002482.cif $
#------------------------------------------------------------------------------
#
# This file is available in the Crystallography Open Database (COD),
# http://www.crystallography.net/. The original data for this entry
# were provided the American Mineralogist Crystal Structure Database,
# http://rruff.geo.arizona.edu/AMS/amcsd.php
#
# The file may be used within the scientific community so long as
# proper attribution is given to the journal article from which the
# data were obtained.
#
data_9002482
loop_
_publ_author_name
'Hattori, T.'
'Nagai, T.'
'Yamanaka, T.'
'Werner, S.'
'Schulz, H.'
_publ_section_title
;
 Single-crystal X-ray diffraction study of FeGeO3 high-P clinopyroxene
 (C2/c) up to 8.2 GPa
 Sample at P = 4.5 GPa
;
_journal_name_full               'American Mineralogist'
_journal_page_first              1485
_journal_page_last               1491
_journal_volume                  85
_journal_year                    2000
_chemical_formula_sum            'Fe Ge O3'
_chemical_name_mineral           Clinopyroxene
_space_group_IT_number           15
_symmetry_space_group_name_Hall  '-C 2yc'
_symmetry_space_group_name_H-M   'C 1 2/c 1'
_cell_angle_alpha                90
_cell_angle_beta                 100.97
_cell_angle_gamma                90
_cell_length_a                   9.651
_cell_length_b                   8.988
_cell_length_c                   5.136
_cell_formula_units_Z            8
_cell_volume                     437.372
_database_code_amcsd             0002571
_diffrn_ambient_pressure         4.5e+06
_exptl_crystal_density_diffrn    5.359
_cod_database_code               9002482
loop_
_space_group_symop_operation_xyz
x,y,z
1/2+x,1/2+y,z
x,-y,1/2+z
1/2+x,1/2-y,1/2+z
-x,y,1/2-z
1/2-x,1/2+y,1/2-z
-x,-y,-z
1/2-x,1/2-y,-z
loop_
_atom_site_label
_atom_site_fract_x
_atom_site_fract_y
_atom_site_fract_z
_atom_site_U_iso_or_equiv
Fe1 0.00000 0.91010 0.25000 0.01811
Fe2 0.00000 0.27230 0.25000 0.01748
Ge 0.30150 0.09360 0.21450 0.01608
O1 0.11810 0.09100 0.13500 0.01735
O2 0.38600 0.24400 0.38790 0.01862
O3 0.36450 0.06570 0.91340 0.01824
loop_
_cod_related_entry_id
_cod_related_entry_database
_cod_related_entry_code
1 AMCSD 0002571
