#------------------------------------------------------------------------------
#$Date: 2023-05-10 20:44:19 +0300 (Wed, 10 May 2023) $
#$Revision: 283658 $
#$URL: file:///home/coder/svn-repositories/cod/cif/9/00/36/9003698.cif $
#------------------------------------------------------------------------------
#
# This file is available in the Crystallography Open Database (COD),
# http://www.crystallography.net/. The original data for this entry
# were provided the American Mineralogist Crystal Structure Database,
# http://rruff.geo.arizona.edu/AMS/amcsd.php
#
# The file may be used within the scientific community so long as
# proper attribution is given to the journal article from which the
# data were obtained.
#
data_9003698
loop_
_publ_author_name
'Senda, K.'
'Ishida, K.'
'Jenkins, D. M.'
_publ_section_title
;
 X-ray Rietveld refinement and FTIR spectra of synthetic (Si,Ge)-richterites
 Sample: Ge8Ri, Si0Ge100
;
_journal_name_full               'American Mineralogist'
_journal_page_first              1062
_journal_page_last               1071
_journal_paper_doi               10.2138/am.2005.1644
_journal_volume                  90
_journal_year                    2005
_chemical_formula_sum            'Ca0.84 Ge8 H2 Mg5 Na1.62 O24'
_chemical_name_mineral           Richterite
_space_group_IT_number           12
_symmetry_space_group_name_Hall  '-C 2y'
_symmetry_space_group_name_H-M   'C 1 2/m 1'
_cell_angle_alpha                90
_cell_angle_beta                 106.015
_cell_angle_gamma                90
_cell_formula_units_Z            2
_cell_length_a                   10.3244
_cell_length_b                   18.282
_cell_length_c                   5.3994
_cell_volume                     979.587
_database_code_amcsd             0003796
_exptl_crystal_density_diffrn    3.930
_cod_original_formula_sum        'Na1.62 Ca.84 Mg5 Ge8 O24 H2'
_cod_database_code               9003698
loop_
_space_group_symop_operation_xyz
x,y,z
1/2+x,1/2+y,z
x,-y,z
1/2+x,1/2-y,z
-x,y,-z
1/2-x,1/2+y,-z
-x,-y,-z
1/2-x,1/2-y,-z
loop_
_atom_site_label
_atom_site_fract_x
_atom_site_fract_y
_atom_site_fract_z
_atom_site_occupancy
_atom_site_U_iso_or_equiv
_atom_site_type_symbol
_atom_site_attached_hydrogens
NaA 0.00000 0.50000 0.00000 0.46000 0.03394 Na 0
Ca4 0.00000 0.27450 0.50000 0.42000 0.02001 Ca 0
Na4 0.00000 0.27450 0.50000 0.58000 0.02001 Na 0
Mg1 0.00000 0.08680 0.50000 1.00000 0.00595 Mg 0
Mg2 0.00000 0.17810 0.00000 1.00000 0.00773 Mg 0
Mg3 0.00000 0.00000 0.00000 1.00000 0.00532 Mg 0
Ge1 0.27950 0.08560 0.30900 1.00000 0.00646 Ge 0
Ge2 0.28700 0.17450 0.81470 1.00000 0.00633 Ge 0
O1 0.10700 0.08410 0.21800 1.00000 0.00874 O 0
O2 0.11300 0.17050 0.73100 1.00000 0.00811 O 0
O-H3 0.10400 0.00000 0.71800 1.00000 0.00811 O 1
O4 0.36300 0.25200 0.78000 1.00000 0.01216 O 0
O5 0.35000 0.14240 0.14800 1.00000 0.01089 O 0
O6 0.34500 0.10430 0.63100 1.00000 0.01064 O 0
O7 0.34200 0.00000 0.24600 1.00000 0.01178 O 0
loop_
_cod_changelog_entry_id
_cod_changelog_entry_author
_cod_changelog_entry_date
_cod_changelog_entry_text
1
;cod-tools version 3.8.0
Id: cif_guess_AMCSD_atom_types 9574 2023-05-10 09:00:05Z saulius
;
2023-05-10T18:48:32+03:00
;Derived atom types and hydrogen counts
from atom names that follow the AMCSD naming convention
(Wat == water, O-H == hydroxyl).
;
loop_
_cod_related_entry_id
_cod_related_entry_database
_cod_related_entry_code
1 AMCSD 0003796
