#------------------------------------------------------------------------------
#$Date: 2024-04-25 17:59:02 +0300 (Thu, 25 Apr 2024) $
#$Revision: 291351 $
#$URL: file:///home/coder/svn-repositories/cod/cif/9/00/34/9003424.cif $
#------------------------------------------------------------------------------
#
# This file is available in the Crystallography Open Database (COD),
# http://www.crystallography.net/. The original data for this entry
# were provided the American Mineralogist Crystal Structure Database,
# http://rruff.geo.arizona.edu/AMS/amcsd.php
#
# The file may be used within the scientific community so long as
# proper attribution is given to the journal article from which the
# data were obtained.
#
data_9003424
loop_
_publ_author_name
'Thompson, R. M.'
'Downs, R. T.'
_publ_section_title
;Model pyroxenes II: Structural variation as a function of tetrahedral
 rotation model low clinospodumene at P = 8.835 GPa after Arlt and Angel
 (2000) with O3A-O3A-O3A angle = 206.4, O3B-O3B-O3B angle = 143.5, and model
 oxygen radius = 1.254
;
_journal_name_full               'American Mineralogist'
_journal_page_first              614
_journal_page_last               628
_journal_volume                  89
_journal_year                    2004
_chemical_formula_sum            'Al Li O6 Si2'
_chemical_name_mineral           Pyroxene-ideal
_space_group_IT_number           14
_symmetry_space_group_name_Hall  '-P 2ybc'
_symmetry_space_group_name_H-M   'P 1 21/c 1'
_cell_angle_alpha                90
_cell_angle_beta                 109.6
_cell_angle_gamma                90
_cell_length_a                   9.292
_cell_length_b                   8.459
_cell_formula_units_Z            4
_cell_length_c                   4.884
_cell_volume                     361.644
_database_code_amcsd             0003513
_diffrn_ambient_pressure         8.835e+06
_exptl_crystal_density_diffrn    3.418
_cod_original_formula_sum        'Al Li Si2 O6'
_cod_database_code               9003424
loop_
_space_group_symop_operation_xyz
x,y,z
x,1/2-y,1/2+z
-x,1/2+y,1/2-z
-x,-y,-z
loop_
_atom_site_label
_atom_site_fract_x
_atom_site_fract_y
_atom_site_fract_z
Al 0.24850 0.66667 0.20830
Li 0.24850 0.00000 0.20830
SiA 0.05850 0.33333 0.32130
SiB 0.56000 0.83333 0.24070
O1A -0.11700 0.33333 0.20910
O2A 0.11700 0.50000 0.29090
O3A 0.11700 0.28390 0.64260
O1B 0.38010 0.83333 0.12570
O2B 0.61990 0.00000 0.37430
O3B 0.61990 0.70240 0.48150
loop_
_cod_related_entry_id
_cod_related_entry_database
_cod_related_entry_code
1 AMCSD 0003513
