#------------------------------------------------------------------------------
#$Date: 2024-04-25 17:59:02 +0300 (Thu, 25 Apr 2024) $
#$Revision: 291351 $
#$URL: file:///home/coder/svn-repositories/cod/cif/9/00/33/9003375.cif $
#------------------------------------------------------------------------------
#
# This file is available in the Crystallography Open Database (COD),
# http://www.crystallography.net/. The original data for this entry
# were provided the American Mineralogist Crystal Structure Database,
# http://rruff.geo.arizona.edu/AMS/amcsd.php
#
# The file may be used within the scientific community so long as
# proper attribution is given to the journal article from which the
# data were obtained.
#
data_9003375
loop_
_publ_author_name
'Antao, S. M.'
'Hassan, I.'
'Parise, J. B.'
_publ_section_title
;
 Tugtupite: High-temperature structures obtained from in situ synchrotron
 diffraction and Rietveld refinements
 T = 902 C
;
_journal_name_full               'American Mineralogist'
_journal_page_first              492
_journal_page_last               497
_journal_volume                  89
_journal_year                    2004
_chemical_formula_sum            'Al Be Cl Na4 O12 Si4'
_chemical_name_mineral           Tugtupite
_space_group_IT_number           82
_symmetry_space_group_name_Hall  'I -4'
_symmetry_space_group_name_H-M   'I -4'
_cell_angle_alpha                90
_cell_angle_beta                 90
_cell_angle_gamma                90
_cell_length_a                   8.70633
_cell_length_b                   8.70633
_cell_length_c                   8.9169
_cell_formula_units_Z            2
_cell_volume                     675.903
_database_code_amcsd             0003464
_diffrn_ambient_temperature      1175.15
_exptl_crystal_density_diffrn    2.298
_cod_original_formula_sum        'Al Be Si4 O12 Na4 Cl'
_cod_database_code               9003375
loop_
_space_group_symop_operation_xyz
x,y,z
1/2+x,1/2+y,1/2+z
y,-x,-z
1/2+y,1/2-x,1/2-z
-x,-y,z
1/2-x,1/2-y,1/2+z
-y,x,-z
1/2-y,1/2+x,1/2-z
loop_
_atom_site_label
_atom_site_fract_x
_atom_site_fract_y
_atom_site_fract_z
_atom_site_U_iso_or_equiv
Al 0.00000 0.50000 0.75000 0.02080
Be 0.00000 0.50000 0.25000 0.01500
Si 0.01160 0.25410 0.49490 0.02080
O1 0.14940 0.13870 0.45050 0.02720
O2 0.34330 0.03150 0.65280 0.02720
O3 0.43550 0.14600 0.14000 0.02720
Na 0.16310 0.19850 0.18340 0.06740
Cl 0.00000 0.00000 0.00000 0.08990
loop_
_cod_related_entry_id
_cod_related_entry_database
_cod_related_entry_code
1 AMCSD 0003464
