#------------------------------------------------------------------------------
#$Date: 2024-04-25 17:59:02 +0300 (Thu, 25 Apr 2024) $
#$Revision: 291351 $
#$URL: file:///home/coder/svn-repositories/cod/cif/9/00/33/9003323.cif $
#------------------------------------------------------------------------------
#
# This file is available in the Crystallography Open Database (COD),
# http://www.crystallography.net/. The original data for this entry
# were provided the American Mineralogist Crystal Structure Database,
# http://rruff.geo.arizona.edu/AMS/amcsd.php
#
# The file may be used within the scientific community so long as
# proper attribution is given to the journal article from which the
# data were obtained.
#
data_9003323
loop_
_publ_author_name
'Hassan, I.'
'Antao, S. M.'
'Parise, J. B.'
_publ_section_title
;
 Sodalite: High-temperature structures obtained from synchrotron radiation
 and Rietveld refinements
 Sample: T = 270 C
;
_journal_name_full               'American Mineralogist'
_journal_page_first              359
_journal_page_last               364
_journal_volume                  89
_journal_year                    2004
_chemical_formula_sum            'Al3 Cl Na4 O12 Si3'
_chemical_name_mineral           Sodalite
_space_group_IT_number           218
_symmetry_space_group_name_Hall  'P -4n 2 3'
_symmetry_space_group_name_H-M   'P -4 3 n'
_cell_angle_alpha                90
_cell_angle_beta                 90
_cell_angle_gamma                90
_cell_length_a                   8.91423
_cell_length_b                   8.91423
_cell_length_c                   8.91423
_cell_formula_units_Z            2
_cell_volume                     708.356
_database_code_amcsd             0003412
_diffrn_ambient_temperature      543.15
_exptl_crystal_density_diffrn    2.272
_cod_original_formula_sum        'Na4 Al3 Si3 O12 Cl'
_cod_database_code               9003323
loop_
_space_group_symop_operation_xyz
x,y,z
-z,x,-y
-y,z,-x
-x,y,-z
1/2+x,1/2-z,1/2-y
1/2+z,1/2-y,1/2-x
1/2+y,1/2-x,1/2-z
1/2+x,1/2+z,1/2+y
1/2+z,1/2+y,1/2+x
1/2+y,1/2+x,1/2+z
-z,-x,y
-y,-z,x
-x,-y,z
z,-x,-y
y,-z,-x
x,-y,-z
1/2-x,1/2+z,1/2-y
1/2-z,1/2+y,1/2-x
1/2-y,1/2+x,1/2-z
1/2-x,1/2-z,1/2+y
1/2-z,1/2-y,1/2+x
1/2-y,1/2-x,1/2+z
z,x,y
y,z,x
loop_
_atom_site_label
_atom_site_fract_x
_atom_site_fract_y
_atom_site_fract_z
_atom_site_U_iso_or_equiv
Na 0.17880 0.17880 0.17880 0.03470
Al 0.25000 0.00000 0.50000 0.00900
Si 0.25000 0.50000 0.00000 0.00900
O 0.14122 0.15155 0.44178 0.00920
Cl 0.00000 0.00000 0.00000 0.04650
loop_
_cod_related_entry_id
_cod_related_entry_database
_cod_related_entry_code
1 AMCSD 0003412
