#------------------------------------------------------------------------------
#$Date: 2024-04-25 17:59:02 +0300 (Thu, 25 Apr 2024) $
#$Revision: 291351 $
#$URL: file:///home/coder/svn-repositories/cod/cif/9/00/34/9003437.cif $
#------------------------------------------------------------------------------
#
# This file is available in the Crystallography Open Database (COD),
# http://www.crystallography.net/. The original data for this entry
# were provided the American Mineralogist Crystal Structure Database,
# http://rruff.geo.arizona.edu/AMS/amcsd.php
#
# The file may be used within the scientific community so long as
# proper attribution is given to the journal article from which the
# data were obtained.
#
data_9003437
loop_
_publ_author_name
'Thompson, R. M.'
'Downs, R. T.'
_publ_section_title
;Model pyroxenes II: Structural variation as a function of tetrahedral
 rotation model hi-P protopx at 9.98 GPa after Yang et al. (1999) with
 O3A-O3A-O3A angle = 147.8, O3B-O3B-O3B angle = 220.8, and model oxygen radius
 = 1.307 Note: Atoms Mg, Si, and O are assigned to atomic positions for
 convenience
;
_journal_name_full               'American Mineralogist'
_journal_page_first              614
_journal_page_last               628
_journal_volume                  89
_journal_year                    2004
_chemical_formula_sum            'Mg O3 Si'
_chemical_name_mineral           Pyroxene-ideal
_symmetry_space_group_name_H-M   'P 21 c n'
_cell_angle_alpha                90
_cell_angle_beta                 90
_cell_angle_gamma                90
_cell_length_a                   9.002
_cell_length_b                   8.698
_cell_length_c                   5.022
_cell_formula_units_Z            8
_cell_volume                     393.220
_database_code_amcsd             0003526
_exptl_crystal_density_diffrn    3.391
_cod_original_formula_sum        'Mg Si O3'
_cod_database_code               9003437
loop_
_space_group_symop_operation_xyz
x,y,z
x,-y,1/2+z
1/2+x,1/2+y,1/2-z
1/2+x,1/2-y,-z
loop_
_atom_site_label
_atom_site_fract_x
_atom_site_fract_y
_atom_site_fract_z
Mg 0.00000 0.08333 0.68450
Mg 0.00000 0.25000 0.18450
SiA 0.30930 0.08333 0.04160
SiB 0.19220 0.58333 0.12500
O1A 0.13150 0.08333 0.04160
O2A 0.36850 0.25000 0.12500
O3A 0.36850 -0.04170 0.24990
O1B 0.37440 0.58333 0.12500
O2B 0.13150 0.75000 0.01780
O3B 0.13150 0.44640 -0.07140
loop_
_cod_related_entry_id
_cod_related_entry_database
_cod_related_entry_code
1 AMCSD 0003526
