#------------------------------------------------------------------------------
#$Date: 2023-05-18 15:51:33 +0300 (Thu, 18 May 2023) $
#$Revision: 283866 $
#$URL: file:///home/coder/svn-repositories/cod/cif/9/00/38/9003882.cif $
#------------------------------------------------------------------------------
#
# This file is available in the Crystallography Open Database (COD),
# http://www.crystallography.net/. The original data for this entry
# were provided the American Mineralogist Crystal Structure Database,
# http://rruff.geo.arizona.edu/AMS/amcsd.php
#
# The file may be used within the scientific community so long as
# proper attribution is given to the journal article from which the
# data were obtained.
#
data_9003882
loop_
_publ_author_name
'Lee, Y.'
'Hriljac, J. A.'
'Parise, J. B.'
'Vogt, T.'
_publ_section_title
;
 Pressure-induced hydration in zeolite tetranatrolite
 Note: P = 0 GPa
;
_journal_name_full               'American Mineralogist'
_journal_page_first              247
_journal_page_last               251
_journal_paper_doi               10.2138/am.2006.1847
_journal_volume                  91
_journal_year                    2006
_chemical_compound_source        'Mt. Saint-Hilaire, Quebec, Canada'
_chemical_formula_sum            'Al2.315 Ca0.474 H4.06 Na1.462 O12.74 Si2.685'
_chemical_name_mineral           Gonnardite
_space_group_IT_number           122
_symmetry_space_group_name_Hall  'I -4 2bw'
_symmetry_space_group_name_H-M   'I -4 2 d'
_cell_angle_alpha                90
_cell_angle_beta                 90
_cell_angle_gamma                90
_cell_formula_units_Z            4
_cell_length_a                   13.1988
_cell_length_b                   13.1988
_cell_length_c                   6.6288
_cell_volume                     1154.792
_database_code_amcsd             0004006
_diffrn_ambient_pressure         0
_exptl_crystal_density_diffrn    2.292
_cod_original_formula_sum        'Na1.462 Ca.474 (Si2.685 Al2.315) O12.74 H4.06'
_cod_database_code               9003882
loop_
_space_group_symop_operation_xyz
x,y,z
1/2+x,1/2+y,1/2+z
1/2-y,-x,3/4+z
-y,1/2-x,1/4+z
y,-x,-z
1/2+y,1/2-x,1/2-z
-x,1/2+y,1/4-z
1/2-x,+y,3/4-z
-x,-y,z
1/2-x,1/2-y,1/2+z
1/2+y,x,3/4+z
+y,1/2+x,1/4+z
-y,x,-z
1/2-y,1/2+x,1/2-z
x,1/2-y,1/4-z
1/2+x,-y,3/4-z
loop_
_atom_site_label
_atom_site_fract_x
_atom_site_fract_y
_atom_site_fract_z
_atom_site_occupancy
_atom_site_U_iso_or_equiv
_atom_site_type_symbol
_atom_site_attached_hydrogens
Na 0.69230 0.25000 0.12500 0.73100 0.02680 Na 0
Ca 0.69230 0.25000 0.12500 0.23700 0.02680 Ca 0
Si1 0.00000 0.00000 0.00000 0.53700 0.00800 Si 0
Al1 0.00000 0.00000 0.00000 0.46300 0.00800 Al 0
Si2 0.05500 0.13260 0.62100 0.53700 0.00800 Si 0
Al2 0.05500 0.13260 0.62100 0.46300 0.00800 Al 0
O1 0.39180 0.25000 0.12500 1.00000 0.01200 O 0
O2 0.13390 0.06070 0.47800 1.00000 0.01200 O 0
O3 0.05260 0.09510 0.86620 1.00000 0.01200 O 0
Wat4 0.12770 0.25000 0.12500 1.00000 0.03800 O 2
Wat5 0.87500 0.25000 0.12500 0.37000 0.03800 O 2
loop_
_cod_changelog_entry_id
_cod_changelog_entry_author
_cod_changelog_entry_date
_cod_changelog_entry_text
1
;cod-tools version 3.8.0
Id: cif_guess_AMCSD_atom_types 9581 2023-05-17 12:35:41Z saulius
;
2023-05-18T11:37:44+03:00
;Derived atom types and hydrogen counts
from atom names that follow the AMCSD naming convention
(Wat == water, O-H == hydroxyl).
;
loop_
_cod_related_entry_id
_cod_related_entry_database
_cod_related_entry_code
1 AMCSD 0004006
