#------------------------------------------------------------------------------
#$Date: 2023-05-18 15:51:33 +0300 (Thu, 18 May 2023) $
#$Revision: 283866 $
#$URL: file:///home/coder/svn-repositories/cod/cif/9/00/34/9003441.cif $
#------------------------------------------------------------------------------
#
# This file is available in the Crystallography Open Database (COD),
# http://www.crystallography.net/. The original data for this entry
# were provided the American Mineralogist Crystal Structure Database,
# http://rruff.geo.arizona.edu/AMS/amcsd.php
#
# The file may be used within the scientific community so long as
# proper attribution is given to the journal article from which the
# data were obtained.
#
data_9003441
loop_
_publ_author_name
'Gatta, G. D.'
'Ballaran, T. B.'
'Comodi, P.'
'Zanazzi, P. F.'
_publ_section_title
;Isothermal equation of state and compressional behavior of tetragonal
 edingtonite Sample at P = 2.285 GPa
;
_journal_name_full               'American Mineralogist'
_journal_page_first              633
_journal_page_last               639
_journal_volume                  89
_journal_year                    2004
_chemical_formula_sum            'Al1.96 Ba0.88 H8 O13.32 Si3.04'
_chemical_name_mineral           Edingtonite
_space_group_IT_number           113
_symmetry_space_group_name_Hall  'P -4 2ab'
_symmetry_space_group_name_H-M   'P -4 21 m'
_cell_angle_alpha                90
_cell_angle_beta                 90
_cell_angle_gamma                90
_cell_formula_units_Z            2
_cell_length_a                   9.4669
_cell_length_b                   9.4669
_cell_length_c                   6.4765
_cell_volume                     580.438
_database_code_amcsd             0003531
_diffrn_ambient_pressure         2.285e+06
_exptl_crystal_density_diffrn    2.748
_cod_original_formula_sum        'Ba.88 (Si3.04 Al1.96) O13.32 H8'
_cod_database_code               9003441
loop_
_space_group_symop_operation_xyz
x,y,z
1/2-y,1/2-x,z
y,-x,-z
1/2-x,1/2+y,-z
-x,-y,z
1/2+y,1/2+x,z
-y,x,-z
1/2+x,1/2-y,-z
loop_
_atom_site_label
_atom_site_fract_x
_atom_site_fract_y
_atom_site_fract_z
_atom_site_occupancy
_atom_site_U_iso_or_equiv
_atom_site_type_symbol
_atom_site_attached_hydrogens
Ba1 0.50000 0.00000 0.64407 0.84000 0.01560 Ba 0
Ba2 0.50000 0.00000 0.59900 0.04000 0.03500 Ba 0
SiT1 0.00000 0.00000 0.00000 0.60000 0.01850 Si 0
AlT1 0.00000 0.00000 0.00000 0.40000 0.01850 Al 0
SiT2 -0.17650 0.08882 0.38125 0.61000 0.01860 Si 0
AlT2 -0.17650 0.08882 0.38125 0.39000 0.01860 Al 0
O1 0.16745 0.33255 0.62770 1.00000 0.01790 O 0
O23 -0.05014 0.19435 0.45890 1.00000 0.02290 O 0
O45 -0.14302 0.03088 0.14350 1.00000 0.02420 O 0
Wat1 0.17930 0.32060 0.15520 0.74000 0.01600 O 2
Wat2 0.37740 0.12250 -0.01360 0.92000 0.04990 O 2
loop_
_cod_changelog_entry_id
_cod_changelog_entry_author
_cod_changelog_entry_date
_cod_changelog_entry_text
1
;cod-tools version 3.8.0
Id: cif_guess_AMCSD_atom_types 9581 2023-05-17 12:35:41Z saulius
;
2023-05-18T11:37:31+03:00
;Derived atom types and hydrogen counts
from atom names that follow the AMCSD naming convention
(Wat == water, O-H == hydroxyl).
;
loop_
_cod_related_entry_id
_cod_related_entry_database
_cod_related_entry_code
1 AMCSD 0003531
