#------------------------------------------------------------------------------
#$Date: 2023-05-10 20:44:19 +0300 (Wed, 10 May 2023) $
#$Revision: 283658 $
#$URL: file:///home/coder/svn-repositories/cod/cif/9/00/36/9003696.cif $
#------------------------------------------------------------------------------
#
# This file is available in the Crystallography Open Database (COD),
# http://www.crystallography.net/. The original data for this entry
# were provided the American Mineralogist Crystal Structure Database,
# http://rruff.geo.arizona.edu/AMS/amcsd.php
#
# The file may be used within the scientific community so long as
# proper attribution is given to the journal article from which the
# data were obtained.
#
data_9003696
loop_
_publ_author_name
'Senda, K.'
'Ishida, K.'
'Jenkins, D. M.'
_publ_section_title
;
 X-ray Rietveld refinement and FTIR spectra of synthetic (Si,Ge)-richterites
 Sample: Ge4Ri, Si48Ge52
;
_journal_name_full               'American Mineralogist'
_journal_page_first              1062
_journal_page_last               1071
_journal_paper_doi               10.2138/am.2005.1644
_journal_volume                  90
_journal_year                    2005
_chemical_formula_sum            'Ca0.98 Ge4.12 H2 Mg5 Na1.47 O24 Si3.88'
_chemical_name_mineral           Richterite
_space_group_IT_number           12
_symmetry_space_group_name_Hall  '-C 2y'
_symmetry_space_group_name_H-M   'C 1 2/m 1'
_cell_angle_alpha                90
_cell_angle_beta                 105.067
_cell_angle_gamma                90
_cell_formula_units_Z            2
_cell_length_a                   10.1237
_cell_length_b                   18.147
_cell_length_c                   5.3386
_cell_volume                     947.063
_database_code_amcsd             0003794
_exptl_crystal_density_diffrn    3.467
_cod_original_formula_sum        'Na1.47 Ca.98 Mg5 (Si3.88 Ge4.12) O24 H2'
_cod_database_code               9003696
loop_
_space_group_symop_operation_xyz
x,y,z
1/2+x,1/2+y,z
x,-y,z
1/2+x,1/2-y,z
-x,y,-z
1/2-x,1/2+y,-z
-x,-y,-z
1/2-x,1/2-y,-z
loop_
_atom_site_label
_atom_site_fract_x
_atom_site_fract_y
_atom_site_fract_z
_atom_site_occupancy
_atom_site_U_iso_or_equiv
_atom_site_type_symbol
_atom_site_attached_hydrogens
NaA 0.00000 0.50000 0.00000 0.45000 0.03394 Na 0
Ca4 0.00000 0.27730 0.50000 0.49000 0.02001 Ca 0
Na4 0.00000 0.27730 0.50000 0.51000 0.02001 Na 0
Mg1 0.00000 0.08820 0.50000 1.00000 0.00595 Mg 0
Mg2 0.00000 0.17830 0.00000 1.00000 0.00773 Mg 0
Mg3 0.00000 0.00000 0.00000 1.00000 0.00532 Mg 0
Si1 0.28030 0.08500 0.30400 0.58000 0.00646 Si 0
Ge1 0.28030 0.08500 0.30400 0.42000 0.00646 Ge 0
Si2 0.28560 0.17310 0.80870 0.39000 0.00633 Si 0
Ge2 0.28560 0.17310 0.80870 0.61000 0.00633 Ge 0
O1 0.11300 0.08390 0.21700 1.00000 0.00874 O 0
O2 0.11300 0.17020 0.72600 1.00000 0.00811 O 0
O-H3 0.10600 0.00000 0.72500 1.00000 0.00811 O 1
O4 0.35500 0.24950 0.79000 1.00000 0.01216 O 0
O5 0.34600 0.13650 0.12100 1.00000 0.01089 O 0
O6 0.34200 0.10990 0.62400 1.00000 0.01064 O 0
O7 0.33900 0.00000 0.26200 1.00000 0.01178 O 0
loop_
_cod_changelog_entry_id
_cod_changelog_entry_author
_cod_changelog_entry_date
_cod_changelog_entry_text
1
;cod-tools version 3.8.0
Id: cif_guess_AMCSD_atom_types 9574 2023-05-10 09:00:05Z saulius
;
2023-05-10T18:48:31+03:00
;Derived atom types and hydrogen counts
from atom names that follow the AMCSD naming convention
(Wat == water, O-H == hydroxyl).
;
loop_
_cod_related_entry_id
_cod_related_entry_database
_cod_related_entry_code
1 AMCSD 0003794
