#------------------------------------------------------------------------------
#$Date: 2024-04-25 17:59:02 +0300 (Thu, 25 Apr 2024) $
#$Revision: 291351 $
#$URL: file:///home/coder/svn-repositories/cod/cif/9/00/38/9003856.cif $
#------------------------------------------------------------------------------
#
# This file is available in the Crystallography Open Database (COD),
# http://www.crystallography.net/. The original data for this entry
# were provided the American Mineralogist Crystal Structure Database,
# http://rruff.geo.arizona.edu/AMS/amcsd.php
#
# The file may be used within the scientific community so long as
# proper attribution is given to the journal article from which the
# data were obtained.
#
data_9003856
loop_
_publ_author_name
'Domeneghetti, M. C.'
'Zema, M.'
'Tazzoli, V.'
_publ_section_title
;
 Kinetics of Fe2+-Mg order-disorder in P2_1/c pigeonite
 Sample: N.13, annealed at T = 650 C for t = 120 min
;
_journal_name_full               'American Mineralogist'
_journal_page_first              1816
_journal_page_last               1823
_journal_paper_doi               10.2138/am.2005.1773
_journal_volume                  90
_journal_year                    2005
_chemical_compound_source        'Parana, Brazil'
_chemical_formula_sum
'Al0.016 Ca0.191 Fe0.851 Mg0.916 Mn0.029 Na0.003 O6 Si1.984 Ti0.01'
_chemical_name_mineral           Pigeonite
_space_group_IT_number           14
_symmetry_space_group_name_Hall  '-P 2ybc'
_symmetry_space_group_name_H-M   'P 1 21/c 1'
_cell_angle_alpha                90
_cell_angle_beta                 108.505
_cell_angle_gamma                90
_cell_length_a                   9.7084
_cell_length_b                   8.9414
_cell_length_c                   5.2476
_cell_formula_units_Z            4
_cell_volume                     431.974
_database_code_amcsd             0003980
_exptl_crystal_density_diffrn    3.563
_exptl_crystal_thermal_history   'annealed at T = 650 C for t = 120 min'
_cod_original_formula_sum
'Mg.916 Fe.851 Ca.191 Mn.029 Na.003 Ti.01 Si1.984 Al.016 O6'
_cod_database_code               9003856
loop_
_space_group_symop_operation_xyz
x,y,z
x,1/2-y,1/2+z
-x,1/2+y,1/2-z
-x,-y,-z
loop_
_atom_site_aniso_label
_atom_site_aniso_U_11
_atom_site_aniso_U_22
_atom_site_aniso_U_33
_atom_site_aniso_U_12
_atom_site_aniso_U_13
_atom_site_aniso_U_23
MgM2A 0.00974 0.01039 0.00732 0.00012 0.00064 0.00184
FeM2A 0.00974 0.01039 0.00732 0.00012 0.00064 0.00184
CaM2A 0.00974 0.01039 0.00732 0.00012 0.00064 0.00184
MnM2A 0.00974 0.01039 0.00732 0.00012 0.00064 0.00184
NaM2A 0.00974 0.01039 0.00732 0.00012 0.00064 0.00184
MgM1 0.00803 0.00664 0.00865 0.00014 0.00277 0.00041
Fe2+M1 0.00803 0.00664 0.00865 0.00014 0.00277 0.00041
Fe3+M1 0.00803 0.00664 0.00865 0.00014 0.00277 0.00041
TiM1 0.00803 0.00664 0.00865 0.00014 0.00277 0.00041
MnM1 0.00803 0.00664 0.00865 0.00014 0.00277 0.00041
SiA 0.00627 0.00598 0.01051 -0.00047 0.00342 -0.00061
SiB 0.00653 0.00592 0.00851 -0.00102 0.00288 -0.00096
AlB 0.00653 0.00592 0.00851 -0.00102 0.00288 -0.00096
O1A 0.00695 0.00887 0.01034 0.00055 0.00256 0.00006
O2A 0.01246 0.00771 0.01510 -0.00310 0.00643 -0.00186
O3A 0.00953 0.02305 0.02175 0.00077 0.00472 0.01469
O1B 0.00696 0.00955 0.01066 0.00066 0.00337 0.00023
O2B 0.01470 0.01147 0.02155 -0.00580 0.01066 -0.00768
O3B 0.00850 0.02046 0.01451 0.00044 0.00413 0.00784
loop_
_atom_site_label
_atom_site_fract_x
_atom_site_fract_y
_atom_site_fract_z
_atom_site_occupancy
_atom_site_U_iso_or_equiv
MgM2A 0.25525 0.01669 0.22806 0.14840 ?
FeM2A 0.25525 0.01669 0.22806 0.63160 ?
CaM2A 0.25525 0.01669 0.22806 0.04750 ?
MnM2A 0.25525 0.01669 0.22806 0.02610 ?
NaM2A 0.25525 0.01669 0.22806 0.00290 ?
CaM2B 0.25340 0.04641 0.25086 0.14340 0.01552
MgM1 0.25047 0.65468 0.23218 0.76790 ?
Fe2+M1 0.25047 0.65468 0.23218 0.20430 ?
Fe3+M1 0.25047 0.65468 0.23218 0.01490 ?
TiM1 0.25047 0.65468 0.23218 0.01000 ?
MnM1 0.25047 0.65468 0.23218 0.00290 ?
SiA 0.04274 0.34048 0.27594 1.00000 ?
SiB 0.54940 0.83751 0.23904 0.98400 ?
AlB 0.54940 0.83751 0.23904 0.01600 ?
O1A 0.86762 0.33807 0.16839 1.00000 ?
O2A 0.12180 0.49946 0.33226 1.00000 ?
O3A 0.10427 0.26144 0.57737 1.00000 ?
O1B 0.37364 0.83656 0.13516 1.00000 ?
O2B 0.62884 0.98787 0.37214 1.00000 ?
O3B 0.60494 0.70918 0.48119 1.00000 ?
loop_
_cod_related_entry_id
_cod_related_entry_database
_cod_related_entry_code
1 AMCSD 0003980
