#------------------------------------------------------------------------------
#$Date: 2024-04-25 17:59:02 +0300 (Thu, 25 Apr 2024) $
#$Revision: 291351 $
#$URL: file:///home/coder/svn-repositories/cod/cif/9/00/34/9003435.cif $
#------------------------------------------------------------------------------
#
# This file is available in the Crystallography Open Database (COD),
# http://www.crystallography.net/. The original data for this entry
# were provided the American Mineralogist Crystal Structure Database,
# http://rruff.geo.arizona.edu/AMS/amcsd.php
#
# The file may be used within the scientific community so long as
# proper attribution is given to the journal article from which the
# data were obtained.
#
data_9003435
loop_
_publ_author_name
'Thompson, R. M.'
'Downs, R. T.'
_publ_section_title
;Model pyroxenes II: Structural variation as a function of tetrahedral
 rotation model hi-P protopx with O3A-O3A-O3A angle = 120, O3B-O3B-O3B angle =
 240, and model oxygen radius = 1 Note: Atoms Mg, Si, and O are assigned to
 atomic positions for convenience
;
_journal_name_full               'American Mineralogist'
_journal_page_first              614
_journal_page_last               628
_journal_volume                  89
_journal_year                    2004
_chemical_formula_sum            'Mg O3 Si'
_chemical_name_mineral           Pyroxene-ideal
_symmetry_space_group_name_H-M   'P 21 c n'
_cell_angle_alpha                90
_cell_angle_beta                 90
_cell_angle_gamma                90
_cell_length_a                   6.532
_cell_length_b                   6
_cell_length_c                   3.464
_cell_volume                     135.761
_cell_formula_units_Z            8
_database_code_amcsd             0003524
_exptl_crystal_density_diffrn    9.823
_cod_original_formula_sum        'Mg Si O3'
_cod_database_code               9003435
loop_
_space_group_symop_operation_xyz
x,y,z
x,-y,1/2+z
1/2+x,1/2+y,1/2-z
1/2+x,1/2-y,-z
loop_
_atom_site_label
_atom_site_fract_x
_atom_site_fract_y
_atom_site_fract_z
Mg 0.00000 0.08333 0.66667
Mg 0.00000 0.25000 0.16667
SiA 0.31250 0.08333 0.00000
SiB 0.18750 0.58333 0.16667
O1A 0.12500 0.08333 0.00000
O2A 0.37500 0.25000 0.16667
O3A 0.37500 0.91667 0.16667
O1B 0.37500 0.58333 0.16667
O2B 0.12500 0.75000 0.00000
O3B 0.12500 0.41667 0.00000
loop_
_cod_related_entry_id
_cod_related_entry_database
_cod_related_entry_code
1 AMCSD 0003524
