#------------------------------------------------------------------------------
#$Date: 2023-05-10 20:44:19 +0300 (Wed, 10 May 2023) $
#$Revision: 283658 $
#$URL: file:///home/coder/svn-repositories/cod/cif/9/00/35/9003503.cif $
#------------------------------------------------------------------------------
#
# This file is available in the Crystallography Open Database (COD),
# http://www.crystallography.net/. The original data for this entry
# were provided the American Mineralogist Crystal Structure Database,
# http://rruff.geo.arizona.edu/AMS/amcsd.php
#
# The file may be used within the scientific community so long as
# proper attribution is given to the journal article from which the
# data were obtained.
#
data_9003503
loop_
_publ_author_name
'Nagashima, M.'
'Akasaka, M.'
_publ_section_title
;
 An X-ray Rietveld study of piemontite on the join
 Ca2Al3Si3O12(OH) - Ca2Mn3+3Si3O12(OH) formed by hydrothermal synthesis
 Sample: q = 1.5, p = 1.26, Synthesis at P=200 MPa, T=500 C
;
_journal_name_full               'American Mineralogist'
_journal_page_first              1119
_journal_page_last               1129
_journal_volume                  89
_journal_year                    2004
_chemical_formula_sum            'Al1.74 Ca2 H Mn1.26 O13 Si3'
_chemical_name_mineral           Piemontite
_space_group_IT_number           11
_symmetry_space_group_name_Hall  '-P 2yb'
_symmetry_space_group_name_H-M   'P 1 21/m 1'
_cell_angle_alpha                90
_cell_angle_beta                 115.540
_cell_angle_gamma                90
_cell_formula_units_Z            2
_cell_length_a                   8.8589
_cell_length_b                   5.7017
_cell_length_c                   10.1802
_cell_volume                     463.964
_database_code_amcsd             0003593
_diffrn_ambient_pressure         2e+05
_diffrn_ambient_temperature      773.15
_exptl_crystal_density_diffrn    3.504
_cod_original_formula_sum        'Ca2 (Al1.74 Mn1.26) Si3 O13 H'
_cod_database_code               9003503
loop_
_space_group_symop_operation_xyz
x,y,z
x,1/2-y,z
-x,1/2+y,-z
-x,-y,-z
loop_
_atom_site_label
_atom_site_fract_x
_atom_site_fract_y
_atom_site_fract_z
_atom_site_occupancy
_atom_site_type_symbol
_atom_site_attached_hydrogens
Ca1 0.75600 0.75000 0.15200 1.00000 Ca 0
Ca2 0.59500 0.75000 0.42100 1.00000 Ca 0
AlM1 0.00000 0.00000 0.00000 0.73000 Al 0
MnM1 0.00000 0.00000 0.00000 0.27000 Mn 0
AlM2 0.00000 0.00000 0.50000 0.95000 Al 0
MnM2 0.00000 0.00000 0.50000 0.05000 Mn 0
AlM3 0.30400 0.25000 0.22200 0.06000 Al 0
MnM3 0.30400 0.25000 0.22200 0.94000 Mn 0
Si1 0.33800 0.75000 0.04000 1.00000 Si 0
Si2 0.68700 0.25000 0.27200 1.00000 Si 0
Si3 0.18600 0.75000 0.32000 1.00000 Si 0
O1 0.23700 0.98200 0.02800 1.00000 O 0
O2 0.31300 0.97800 0.35200 1.00000 O 0
O3 0.79500 0.01900 0.33400 1.00000 O 0
O4 0.06200 0.25000 0.14000 1.00000 O 0
O5 0.04400 0.75000 0.15100 1.00000 O 0
O6 0.07700 0.75000 0.41400 1.00000 O 0
O7 0.51400 0.75000 0.18500 1.00000 O 0
O8 0.53000 0.25000 0.31200 1.00000 O 0
O9 0.60600 0.25000 0.09100 1.00000 O 0
O-H10 0.08500 0.25000 0.42100 1.00000 O 1
loop_
_cod_changelog_entry_id
_cod_changelog_entry_author
_cod_changelog_entry_date
_cod_changelog_entry_text
1
;cod-tools version 3.8.0
Id: cif_guess_AMCSD_atom_types 9574 2023-05-10 09:00:05Z saulius
;
2023-05-10T18:48:25+03:00
;Derived atom types and hydrogen counts
from atom names that follow the AMCSD naming convention
(Wat == water, O-H == hydroxyl).
;
loop_
_cod_related_entry_id
_cod_related_entry_database
_cod_related_entry_code
1 AMCSD 0003593
