#------------------------------------------------------------------------------
#$Date: 2024-04-25 17:59:02 +0300 (Thu, 25 Apr 2024) $
#$Revision: 291351 $
#$URL: file:///home/coder/svn-repositories/cod/cif/9/00/34/9003463.cif $
#------------------------------------------------------------------------------
#
# This file is available in the Crystallography Open Database (COD),
# http://www.crystallography.net/. The original data for this entry
# were provided the American Mineralogist Crystal Structure Database,
# http://rruff.geo.arizona.edu/AMS/amcsd.php
#
# The file may be used within the scientific community so long as
# proper attribution is given to the journal article from which the
# data were obtained.
#
data_9003463
loop_
_publ_author_name
'Kyono, A.'
'Kimata, M.'
_publ_section_title
;
 Structural variations induced by difference of the inert pair effect
 in the stibnite-bismuthinite solid solution series (Sb,Bi)2S3
 Sample: Sb1.935Bi.065S3
;
_journal_name_full               'American Mineralogist'
_journal_page_first              932
_journal_page_last               940
_journal_volume                  89
_journal_year                    2004
_chemical_formula_sum            'Bi0.064 S3 Sb1.936'
_chemical_name_mineral           Stibnite
_space_group_IT_number           62
_symmetry_space_group_name_Hall  '-P 2ac 2n'
_symmetry_space_group_name_H-M   'P n m a'
_cell_angle_alpha                90
_cell_angle_beta                 90
_cell_angle_gamma                90
_cell_length_a                   11.3122
_cell_length_b                   3.8428
_cell_length_c                   11.221
_cell_formula_units_Z            4
_cell_volume                     487.783
_database_code_amcsd             0003553
_exptl_crystal_density_diffrn    4.702
_cod_original_formula_sum        '(Sb1.936 Bi.064) S3'
_cod_database_code               9003463
loop_
_space_group_symop_operation_xyz
x,y,z
x,1/2-y,z
-x,1/2+y,-z
1/2-x,1/2+y,1/2+z
1/2+x,1/2-y,1/2-z
1/2+x,y,1/2-z
1/2-x,-y,1/2+z
-x,-y,-z
loop_
_atom_site_aniso_label
_atom_site_aniso_U_11
_atom_site_aniso_U_22
_atom_site_aniso_U_33
_atom_site_aniso_U_12
_atom_site_aniso_U_13
_atom_site_aniso_U_23
Sb1 0.02070 0.01480 0.01800 0.00000 -0.00170 0.00000
Bi1 0.02070 0.01480 0.01800 0.00000 -0.00170 0.00000
Sb2 0.01900 0.02160 0.02510 0.00000 0.00430 0.00000
Bi2 0.01900 0.02160 0.02510 0.00000 0.00430 0.00000
S1 0.01930 0.01730 0.01480 0.00000 0.00100 0.00000
S2 0.01670 0.01590 0.01760 0.00000 0.00180 0.00000
S3 0.02000 0.01560 0.01470 0.00000 -0.00180 0.00000
loop_
_atom_site_label
_atom_site_fract_x
_atom_site_fract_y
_atom_site_fract_z
_atom_site_occupancy
_atom_site_U_iso_or_equiv
Sb1 0.47149 0.25000 0.32601 0.96400 0.01781
Bi1 0.47149 0.25000 0.32601 0.03600 0.01781
Sb2 0.34992 0.75000 0.03608 0.97200 0.02189
Bi2 0.34992 0.75000 0.03608 0.02800 0.02189
S1 0.29180 0.25000 0.19190 1.00000 0.01710
S2 0.54960 0.75000 0.12310 1.00000 0.01672
S3 0.37510 0.75000 0.43880 1.00000 0.01672
loop_
_cod_related_entry_id
_cod_related_entry_database
_cod_related_entry_code
1 AMCSD 0003553
