#------------------------------------------------------------------------------
#$Date: 2023-05-10 20:44:19 +0300 (Wed, 10 May 2023) $
#$Revision: 283658 $
#$URL: file:///home/coder/svn-repositories/cod/cif/9/00/34/9003448.cif $
#------------------------------------------------------------------------------
#
# This file is available in the Crystallography Open Database (COD),
# http://www.crystallography.net/. The original data for this entry
# were provided the American Mineralogist Crystal Structure Database,
# http://rruff.geo.arizona.edu/AMS/amcsd.php
#
# The file may be used within the scientific community so long as
# proper attribution is given to the journal article from which the
# data were obtained.
#
data_9003448
loop_
_publ_author_name
'Comodi, P.'
'Fumagalli, P.'
'Montagnoli, M.'
'Zanazzi, P. F.'
_publ_section_title
;
 A single-crystal study on the pressure behavior of phlogopite
 and petrological implications
 P = 6.0 GPa
;
_journal_name_full               'American Mineralogist'
_journal_page_first              647
_journal_page_last               653
_journal_volume                  89
_journal_year                    2004
_chemical_formula_sum
'Al1.28 Ba0.03 F0.18 Fe0.82 H1.72 K0.91 Mg2.18 Na0.02 O11.82 Si2.72'
_chemical_name_mineral           Phlogopite
_space_group_IT_number           12
_symmetry_space_group_name_Hall  '-C 2y'
_symmetry_space_group_name_H-M   'C 1 2/m 1'
_cell_angle_alpha                90
_cell_angle_beta                 100.4
_cell_angle_gamma                90
_cell_formula_units_Z            2
_cell_length_a                   5.256
_cell_length_b                   9.105
_cell_length_c                   9.71
_cell_volume                     457.047
_database_code_amcsd             0003538
_diffrn_ambient_pressure         6e+06
_exptl_crystal_density_diffrn    3.227
_cod_original_formula_sum
'K.91 Ba.03 Na.02 (Si2.72 Al1.28) (Mg2.18 Fe.82) O11.82 F.18 H1.72'
_cod_database_code               9003448
loop_
_space_group_symop_operation_xyz
x,y,z
1/2+x,1/2+y,z
x,-y,z
1/2+x,1/2-y,z
-x,y,-z
1/2-x,1/2+y,-z
-x,-y,-z
1/2-x,1/2-y,-z
loop_
_atom_site_label
_atom_site_fract_x
_atom_site_fract_y
_atom_site_fract_z
_atom_site_occupancy
_atom_site_U_iso_or_equiv
_atom_site_type_symbol
_atom_site_attached_hydrogens
K 0.00000 0.00000 0.00000 0.91000 0.01410 K 0
Ba 0.00000 0.00000 0.00000 0.03000 0.01410 Ba 0
Na 0.00000 0.00000 0.00000 0.02000 0.01410 Na 0
SiT 0.57200 0.16680 0.21600 0.68000 0.00790 Si 0
AlT 0.57200 0.16680 0.21600 0.32000 0.00790 Al 0
MgM1 0.00000 0.50000 0.50000 0.72000 0.00720 Mg 0
FeM1 0.00000 0.50000 0.50000 0.28000 0.00720 Fe 0
MgM2 0.00000 0.83690 0.50000 0.73000 0.00740 Mg 0
FeM2 0.00000 0.83690 0.50000 0.27000 0.00740 Fe 0
O1 0.83400 0.21960 0.15400 1.00000 0.01900 O 0
O2 0.48800 0.00000 0.15200 1.00000 0.01900 O 0
O3 0.63170 0.16740 0.39300 1.00000 0.01100 O 0
O4 0.12800 0.00000 0.38700 0.05000 0.01000 O 0
F4 0.12800 0.00000 0.38700 0.09000 0.01000 F 0
O-H4 0.12800 0.00000 0.38700 0.86000 0.01000 O 1
loop_
_cod_changelog_entry_id
_cod_changelog_entry_author
_cod_changelog_entry_date
_cod_changelog_entry_text
1
;cod-tools version 3.8.0
Id: cif_guess_AMCSD_atom_types 9574 2023-05-10 09:00:05Z saulius
;
2023-05-10T18:48:21+03:00
;Derived atom types and hydrogen counts
from atom names that follow the AMCSD naming convention
(Wat == water, O-H == hydroxyl).
;
loop_
_cod_related_entry_id
_cod_related_entry_database
_cod_related_entry_code
1 AMCSD 0003538
