#------------------------------------------------------------------------------
#$Date: 2023-05-18 15:51:33 +0300 (Thu, 18 May 2023) $
#$Revision: 283866 $
#$URL: file:///home/coder/svn-repositories/cod/cif/9/00/34/9003440.cif $
#------------------------------------------------------------------------------
#
# This file is available in the Crystallography Open Database (COD),
# http://www.crystallography.net/. The original data for this entry
# were provided the American Mineralogist Crystal Structure Database,
# http://rruff.geo.arizona.edu/AMS/amcsd.php
#
# The file may be used within the scientific community so long as
# proper attribution is given to the journal article from which the
# data were obtained.
#
data_9003440
loop_
_publ_author_name
'Gatta, G. D.'
'Ballaran, T. B.'
'Comodi, P.'
'Zanazzi, P. F.'
_publ_section_title
;Isothermal equation of state and compressional behavior of tetragonal
 edingtonite Sample at P = 0.0001 GPa in diamond cell
;
_journal_name_full               'American Mineralogist'
_journal_page_first              633
_journal_page_last               639
_journal_volume                  89
_journal_year                    2004
_chemical_formula_sum            'Al1.96 Ba0.91 H8 O13.32 Si3.04'
_chemical_name_mineral           Edingtonite
_space_group_IT_number           113
_symmetry_space_group_name_Hall  'P -4 2ab'
_symmetry_space_group_name_H-M   'P -4 21 m'
_cell_angle_alpha                90
_cell_angle_beta                 90
_cell_angle_gamma                90
_cell_formula_units_Z            2
_cell_length_a                   9.5909
_cell_length_b                   9.5909
_cell_length_c                   6.5339
_cell_volume                     601.023
_database_code_amcsd             0003530
_diffrn_ambient_pressure         100
_exptl_crystal_density_diffrn    2.677
_exptl_crystal_pressure_history  'P = 0.0001 GPa in diamond cell'
_cod_original_formula_sum        'Ba.91 (Si3.04 Al1.96) O13.32 H8'
_cod_database_code               9003440
loop_
_space_group_symop_operation_xyz
x,y,z
1/2-y,1/2-x,z
y,-x,-z
1/2-x,1/2+y,-z
-x,-y,z
1/2+y,1/2+x,z
-y,x,-z
1/2+x,1/2-y,-z
loop_
_atom_site_label
_atom_site_fract_x
_atom_site_fract_y
_atom_site_fract_z
_atom_site_occupancy
_atom_site_U_iso_or_equiv
_atom_site_type_symbol
_atom_site_attached_hydrogens
Ba1 0.50000 0.00000 0.64480 0.76000 0.01930 Ba 0
Ba2 0.50000 0.00000 0.59380 0.15000 0.02690 Ba 0
SiT1 0.00000 0.00000 0.00000 0.60000 0.01480 Si 0
AlT1 0.00000 0.00000 0.00000 0.40000 0.01480 Al 0
SiT2 -0.17337 0.09321 0.38132 0.61000 0.01698 Si 0
AlT2 -0.17337 0.09321 0.38132 0.39000 0.01698 Al 0
O1 0.17285 0.32715 0.61950 1.00000 0.02090 O 0
O23 -0.04456 0.19450 0.46650 1.00000 0.02270 O 0
O45 -0.13640 0.03823 0.14560 1.00000 0.02190 O 0
Wat1 0.17860 0.32130 0.14050 0.74000 0.03760 O 2
Wat2 0.37400 0.12590 -0.01920 0.92000 0.06600 O 2
loop_
_cod_changelog_entry_id
_cod_changelog_entry_author
_cod_changelog_entry_date
_cod_changelog_entry_text
1
;cod-tools version 3.8.0
Id: cif_guess_AMCSD_atom_types 9581 2023-05-17 12:35:41Z saulius
;
2023-05-18T11:37:30+03:00
;Derived atom types and hydrogen counts
from atom names that follow the AMCSD naming convention
(Wat == water, O-H == hydroxyl).
;
loop_
_cod_related_entry_id
_cod_related_entry_database
_cod_related_entry_code
1 AMCSD 0003530
