#------------------------------------------------------------------------------
#$Date: 2023-05-10 20:44:19 +0300 (Wed, 10 May 2023) $
#$Revision: 283658 $
#$URL: file:///home/coder/svn-repositories/cod/cif/9/00/46/9004652.cif $
#------------------------------------------------------------------------------
#
# This file is available in the Crystallography Open Database (COD),
# http://www.crystallography.net/. The original data for this entry
# were provided the American Mineralogist Crystal Structure Database,
# http://rruff.geo.arizona.edu/AMS/amcsd.php
#
# The file may be used within the scientific community so long as
# proper attribution is given to the journal article from which the
# data were obtained.
#
data_9004652
loop_
_publ_author_name
'Brigatti, M. F.'
'Medici, L.'
'Poppi, L.'
'Vaccaro, C.'
_publ_section_title
;
 Crystal chemistry of trioctahedral micas - 1M from the Alto Paranaiba
 Igneous Province, Southeastern Brazil
 Sample: Tax27-1, ferroan
;
_journal_name_full               'The Canadian Mineralogist'
_journal_page_first              1333
_journal_page_last               1345
_journal_paper_doi               10.2113/gscanmin.39.5.1333
_journal_volume                  39
_journal_year                    2001
_chemical_compound_source
'Alto Paranaiba Igneous Province, Southeastern Brazil'
_chemical_formula_sum
'Al0.8 F0.04 Fe0.72 H1.96 K0.95 Mg2.43 Na0.03 O11.96 Si2.96 Ti0.09'
_chemical_name_mineral           Phlogopite
_space_group_IT_number           12
_symmetry_space_group_name_Hall  '-C 2y'
_symmetry_space_group_name_H-M   'C 1 2/m 1'
_cell_angle_alpha                90
_cell_angle_beta                 99.99
_cell_angle_gamma                90
_cell_formula_units_Z            2
_cell_length_a                   5.351
_cell_length_b                   9.267
_cell_length_c                   10.311
_cell_volume                     503.547
_database_code_amcsd             0005745
_exptl_crystal_density_diffrn    2.903
_cod_original_formula_sum
'O11.96 (F.04 Si2.96) Al.8 Fe.72 Mg2.43 Ti.09 Na.03 K.95 H1.96'
_cod_database_code               9004652
loop_
_space_group_symop_operation_xyz
x,y,z
1/2+x,1/2+y,z
x,-y,z
1/2+x,1/2-y,z
-x,y,-z
1/2-x,1/2+y,-z
-x,-y,-z
1/2-x,1/2-y,-z
loop_
_atom_site_aniso_label
_atom_site_aniso_U_11
_atom_site_aniso_U_22
_atom_site_aniso_U_33
_atom_site_aniso_U_12
_atom_site_aniso_U_13
_atom_site_aniso_U_23
O1 0.02955 0.02219 0.01672 0.00000 -0.00027 0.00000
O2 0.02476 0.02958 0.01828 -0.00445 0.00434 -0.00381
O3 0.01111 0.01044 0.01410 0.00049 0.00108 0.00000
OH4 0.01126 0.01262 0.01358 0.00000 0.00163 0.00000
F4 0.01126 0.01262 0.01358 0.00000 0.00163 0.00000
SiT 0.00464 0.00435 0.00627 0.00000 0.00108 0.00000
AlT 0.00464 0.00435 0.00627 0.00000 0.00108 0.00000
FeT 0.00464 0.00435 0.00627 0.00000 0.00108 0.00000
MgM1 0.00703 0.00566 0.01202 0.00000 0.00217 0.00000
FeM1 0.00703 0.00566 0.01202 0.00000 0.00217 0.00000
TiM1 0.00703 0.00566 0.01202 0.00000 0.00217 0.00000
MgM2 0.00591 0.00696 0.01097 0.00000 0.00136 0.00000
FeM2 0.00591 0.00696 0.01097 0.00000 0.00136 0.00000
TiM2 0.00591 0.00696 0.01097 0.00000 0.00136 0.00000
NaA 0.03799 0.03742 0.02455 0.00000 0.00407 0.00000
KA 0.03799 0.03742 0.02455 0.00000 0.00407 0.00000
loop_
_atom_site_label
_atom_site_fract_x
_atom_site_fract_y
_atom_site_fract_z
_atom_site_occupancy
_atom_site_U_iso_or_equiv
_atom_site_type_symbol
_atom_site_attached_hydrogens
O1 0.01580 0.00000 0.17030 1.00000 0.02343 O 0
O2 0.32650 0.23000 0.16970 1.00000 0.02419 O 0
O3 0.13030 0.16690 0.39070 1.00000 0.01203 O 0
O-H4 0.13240 0.50000 0.39740 0.98000 0.01254 O 1
F4 0.13240 0.50000 0.39740 0.02000 0.01254 F 0
SiT 0.07580 0.16669 0.22744 0.74000 0.00519 Si 0
AlT 0.07580 0.16669 0.22744 0.20000 0.00519 Al 0
FeT 0.07580 0.16669 0.22744 0.06000 0.00519 Fe 0
MgM1 0.00000 0.00000 0.50000 0.81000 0.00823 Mg 0
FeM1 0.00000 0.00000 0.50000 0.16000 0.00823 Fe 0
TiM1 0.00000 0.00000 0.50000 0.03000 0.00823 Ti 0
MgM2 0.00000 0.33310 0.50000 0.81000 0.00798 Mg 0
FeM2 0.00000 0.33310 0.50000 0.16000 0.00798 Fe 0
TiM2 0.00000 0.33310 0.50000 0.03000 0.00798 Ti 0
NaA 0.00000 0.50000 0.00000 0.03000 0.03356 Na 0
KA 0.00000 0.50000 0.00000 0.95000 0.03356 K 0
loop_
_cod_changelog_entry_id
_cod_changelog_entry_author
_cod_changelog_entry_date
_cod_changelog_entry_text
1
;cod-tools version 3.8.0
Id: cif_guess_AMCSD_atom_types 9574 2023-05-10 09:00:05Z saulius
;
2023-05-10T18:49:23+03:00
;Derived atom types and hydrogen counts
from atom names that follow the AMCSD naming convention
(Wat == water, O-H == hydroxyl).
;
loop_
_cod_related_entry_id
_cod_related_entry_database
_cod_related_entry_code
1 AMCSD 0005745
