#------------------------------------------------------------------------------
#$Date: 2023-05-10 20:44:19 +0300 (Wed, 10 May 2023) $
#$Revision: 283658 $
#$URL: file:///home/coder/svn-repositories/cod/cif/9/00/44/9004410.cif $
#------------------------------------------------------------------------------
#
# This file is available in the Crystallography Open Database (COD),
# http://www.crystallography.net/. The original data for this entry
# were provided the American Mineralogist Crystal Structure Database,
# http://rruff.geo.arizona.edu/AMS/amcsd.php
#
# The file may be used within the scientific community so long as
# proper attribution is given to the journal article from which the
# data were obtained.
#
data_9004410
loop_
_publ_author_name
'Liang, J.'
'Hawthorne, F. C.'
_publ_section_title
;
 Rietveld refinement of micaceous materials: muscovite-2M1, a comparison
 with single-crystal structure refinement
 Sample: Rietveld refinement (reflection mode)
;
_journal_name_full               'The Canadian Mineralogist'
_journal_page_first              115
_journal_page_last               122
_journal_volume                  34
_journal_year                    1996
_chemical_formula_sum            'Al1.96 H2 K0.94 O12 Si3.8'
_chemical_name_mineral           Muscovite
_space_group_IT_number           15
_symmetry_space_group_name_Hall  '-C 2yc'
_symmetry_space_group_name_H-M   'C 1 2/c 1'
_cell_angle_alpha                90
_cell_angle_beta                 95.740
_cell_angle_gamma                90
_cell_formula_units_Z            4
_cell_length_a                   5.1805
_cell_length_b                   8.994
_cell_length_c                   20.086
_cell_volume                     931.183
_database_code_amcsd             0005484
_exptl_crystal_density_diffrn    2.785
_cod_original_formula_sum        'Al1.96 Si3.8 K.94 (O12 H2)'
_cod_database_code               9004410
loop_
_space_group_symop_operation_xyz
x,y,z
1/2+x,1/2+y,z
x,-y,1/2+z
1/2+x,1/2-y,1/2+z
-x,y,1/2-z
1/2-x,1/2+y,1/2-z
-x,-y,-z
1/2-x,1/2-y,-z
loop_
_atom_site_label
_atom_site_fract_x
_atom_site_fract_y
_atom_site_fract_z
_atom_site_occupancy
_atom_site_type_symbol
_atom_site_attached_hydrogens
Al 0.24600 0.08100 -0.00120 0.98000 Al 0
SiT1 0.44700 0.25600 0.13460 0.97000 Si 0
SiT2 0.03200 0.42800 0.36420 0.93000 Si 0
K 0.00000 0.10400 0.25000 0.94000 K 0
O-H 0.04500 0.06800 0.45260 1.00000 O 1
O1 0.37900 0.24600 0.05400 1.00000 O 0
O2 0.03500 0.44200 0.44830 1.00000 O 0
O3 0.41300 0.09000 0.16670 1.00000 O 0
O4 0.25700 0.37200 0.16910 1.00000 O 0
O5 0.24800 0.30700 0.34380 1.00000 O 0
loop_
_cod_changelog_entry_id
_cod_changelog_entry_author
_cod_changelog_entry_date
_cod_changelog_entry_text
1
;cod-tools version 3.8.0
Id: cif_guess_AMCSD_atom_types 9574 2023-05-10 09:00:05Z saulius
;
2023-05-10T18:49:03+03:00
;Derived atom types and hydrogen counts
from atom names that follow the AMCSD naming convention
(Wat == water, O-H == hydroxyl).
;
loop_
_cod_related_entry_id
_cod_related_entry_database
_cod_related_entry_code
1 AMCSD 0005484
