#------------------------------------------------------------------------------
#$Date: 2023-05-23 11:35:25 +0300 (Tue, 23 May 2023) $
#$Revision: 283960 $
#$URL: file:///home/coder/svn-repositories/cod/cif/9/00/40/9004052.cif $
#------------------------------------------------------------------------------
#
# This file is available in the Crystallography Open Database (COD),
# http://www.crystallography.net/. The original data for this entry
# were provided the American Mineralogist Crystal Structure Database,
# http://rruff.geo.arizona.edu/AMS/amcsd.php
#
# The file may be used within the scientific community so long as
# proper attribution is given to the journal article from which the
# data were obtained.
#
data_9004052
loop_
_publ_author_name
'Hassan, I.'
'Antao, S. M.'
'Parise, J. B.'
_publ_section_title
;
 Cancrinite: Crystal structure, phase transitions, and
 dehydration behaviour with temperature
 Sample: T = 800 C
;
_journal_name_full               'American Mineralogist'
_journal_page_first              1117
_journal_page_last               1124
_journal_paper_doi               10.2138/am.2006.2013
_journal_volume                  91
_journal_year                    2006
_chemical_compound_source        'Dungannon Township, Bancroft, Ontario, Canada'
_chemical_formula_sum            'C0.742 Al3 Ca0.75 Na3.01 O14.226 Si3'
_chemical_name_mineral           Cancrinite
_space_group_IT_number           173
_symmetry_space_group_name_Hall  'P 6c'
_symmetry_space_group_name_H-M   'P 63'
_cell_angle_alpha                90
_cell_angle_beta                 90
_cell_angle_gamma                120
_cell_formula_units_Z            2
_cell_length_a                   12.6886
_cell_length_b                   12.6886
_cell_length_c                   5.1924
_cell_volume                     723.979
_database_code_amcsd             0004176
_diffrn_ambient_temperature      1073.15
_exptl_crystal_density_diffrn    2.298
_cod_original_formula_sum        'Na3.01 Ca.75 Al3 Si3 C.742 O14.226'
_cod_database_code               9004052
loop_
_space_group_symop_operation_xyz
x,y,z
x-y,x,1/2+z
-y,x-y,z
-x,-y,1/2+z
-x+y,-x,z
y,-x+y,1/2+z
loop_
_atom_site_label
_atom_site_fract_x
_atom_site_fract_y
_atom_site_fract_z
_atom_site_occupancy
_atom_site_U_iso_or_equiv
_atom_site_type_symbol
_atom_site_attached_hydrogens
Na1 0.66667 0.33333 0.10890 1.00000 0.08930 Na 0
Na2 0.12950 0.25250 0.29580 0.67000 0.08930 Na 0
Ca2 0.12950 0.25250 0.29580 0.25000 0.08930 Ca 0
Al 0.07600 0.40710 0.74940 1.00000 0.01650 Al 0
Si 0.33680 0.41530 0.75000 1.00000 0.01650 Si 0
C1 0.00000 0.00000 0.69200 0.37100 0.07400 C 0
C2 0.00000 0.00000 0.93300 0.37100 0.07400 C 0
O1 0.20980 0.40820 0.68070 1.00000 0.02530 O 0
O2 0.10370 0.55570 0.73230 1.00000 0.02530 O 0
O3 0.00430 0.32890 0.01160 1.00000 0.02530 O 0
O4 0.32010 0.35950 0.06130 1.00000 0.02530 O 0
OC1 0.03780 0.12080 0.69200 0.37100 0.07400 O 0
OC2 0.03840 0.12680 0.93300 0.37100 0.07400 O 0
loop_
_cod_changelog_entry_id
_cod_changelog_entry_author
_cod_changelog_entry_date
_cod_changelog_entry_text
1
;cod-tools version 3.8.0
Id: cif_guess_AMCSD_atom_types 9581 2023-05-17 12:35:41Z saulius
;
2023-05-23T09:13:50+03:00
;Derived atom types and hydrogen counts
from atom names that follow the AMCSD naming convention
(Wat == water, O-H == hydroxyl).
;
loop_
_cod_related_entry_id
_cod_related_entry_database
_cod_related_entry_code
1 AMCSD 0004176
