#------------------------------------------------------------------------------
#$Date: 2024-04-25 17:59:02 +0300 (Thu, 25 Apr 2024) $
#$Revision: 291351 $
#$URL: file:///home/coder/svn-repositories/cod/cif/9/00/43/9004347.cif $
#------------------------------------------------------------------------------
#
# This file is available in the Crystallography Open Database (COD),
# http://www.crystallography.net/. The original data for this entry
# were provided the American Mineralogist Crystal Structure Database,
# http://rruff.geo.arizona.edu/AMS/amcsd.php
#
# The file may be used within the scientific community so long as
# proper attribution is given to the journal article from which the
# data were obtained.
#
data_9004347
loop_
_publ_author_name
'Jenkins, D. M.'
'Hawthorne, F. C.'
_publ_section_title
;
 Synthesis and rietveld refinement of amphibole along
 the join Ca2Mg5Si8O22F2 - NaCa2Mg4Ga3Si6O22F2
 Sample: PARG 10-1
;
_journal_name_full               'The Canadian Mineralogist'
_journal_page_first              13
_journal_page_last               24
_journal_volume                  33
_journal_year                    1995
_chemical_compound_source        Synthetic
_chemical_formula_sum            'Ca1.92 F2 Ga0.68 Mg4.92 Na0.27 O22 Si7.48'
_chemical_name_mineral           Pargasite
_space_group_IT_number           12
_symmetry_space_group_name_Hall  '-C 2y'
_symmetry_space_group_name_H-M   'C 1 2/m 1'
_cell_angle_alpha                90
_cell_angle_beta                 104.793
_cell_angle_gamma                90
_cell_length_a                   9.8356
_cell_length_b                   18.025
_cell_length_c                   5.2801
_cell_formula_units_Z            2
_cell_volume                     905.064
_database_code_amcsd             0005420
_exptl_crystal_density_diffrn    3.120
_cod_original_formula_sum        'Si7.48 Ga.68 Mg4.92 Ca1.92 Na.27 O22 F2'
_cod_database_code               9004347
loop_
_space_group_symop_operation_xyz
x,y,z
1/2+x,1/2+y,z
x,-y,z
1/2+x,1/2-y,z
-x,y,-z
1/2-x,1/2+y,-z
-x,-y,-z
1/2-x,1/2-y,-z
loop_
_atom_site_label
_atom_site_fract_x
_atom_site_fract_y
_atom_site_fract_z
_atom_site_occupancy
_atom_site_U_iso_or_equiv
SiT1 0.28470 0.08460 0.30260 0.89000 0.00507
GaT1 0.28470 0.08460 0.30260 0.11000 0.00507
SiT2 0.28930 0.17090 0.80440 0.98000 0.00507
GaT2 0.28930 0.17090 0.80440 0.02000 0.00507
MgM1 0.00000 0.08710 0.50000 1.00000 0.00760
MgM2 0.00000 0.17750 0.00000 0.92000 0.00760
GaM2 0.00000 0.17750 0.00000 0.08000 0.00760
MgM3 0.00000 0.00000 0.00000 1.00000 0.00760
CaM4 0.00000 0.27730 0.50000 0.96000 0.01140
MgM4 0.00000 0.27730 0.50000 0.04000 0.01140
NaA 0.00000 0.50000 0.00000 0.27000 0.02913
O1 0.11430 0.08490 0.21230 1.00000 0.01013
O2 0.11640 0.16980 0.72310 1.00000 0.01013
F3 0.10010 0.00000 0.71050 1.00000 0.01013
O4 0.35700 0.24570 0.78220 1.00000 0.01013
O5 0.34740 0.13380 0.09330 1.00000 0.01267
O6 0.34510 0.11660 0.59630 1.00000 0.01267
O7 0.34510 0.00000 0.28990 1.00000 0.01520
loop_
_cod_related_entry_id
_cod_related_entry_database
_cod_related_entry_code
1 AMCSD 0005420
