#------------------------------------------------------------------------------
#$Date: 2023-05-10 20:44:19 +0300 (Wed, 10 May 2023) $
#$Revision: 283658 $
#$URL: file:///home/coder/svn-repositories/cod/cif/9/00/45/9004524.cif $
#------------------------------------------------------------------------------
#
# This file is available in the Crystallography Open Database (COD),
# http://www.crystallography.net/. The original data for this entry
# were provided the American Mineralogist Crystal Structure Database,
# http://rruff.geo.arizona.edu/AMS/amcsd.php
#
# The file may be used within the scientific community so long as
# proper attribution is given to the journal article from which the
# data were obtained.
#
data_9004524
loop_
_publ_author_name
'Russell, R. L.'
'Guggenheim, S.'
_publ_section_title
;
 The crystal structures of near-end-member phlogopite at high temperatures
 and heat-treated Fe-rich phlogopite: The influence of the O, OH, F site
 Sample: T = 20 deg C
;
_journal_name_full               'The Canadian Mineralogist'
_journal_page_first              711
_journal_page_last               720
_journal_volume                  37
_journal_year                    1999
_chemical_compound_source        'White Well, Australia'
_chemical_formula_sum
'Al1.711 F0.068 Fe0.12 H1.932 K0.82 Mg2.28 Na0.115 O11.932 Si2.784'
_chemical_name_mineral           Phlogopite
_space_group_IT_number           12
_symmetry_space_group_name_Hall  '-C 2y'
_symmetry_space_group_name_H-M   'C 1 2/m 1'
_cell_angle_alpha                90
_cell_angle_beta                 100.05
_cell_angle_gamma                90
_cell_formula_units_Z            2
_cell_length_a                   5.3030
_cell_length_b                   9.1805
_cell_length_c                   10.2483
_cell_volume                     491.275
_database_code_amcsd             0005599
_diffrn_ambient_temperature      293.15
_exptl_crystal_density_diffrn    2.808
_exptl_crystal_thermal_history
;heat-treated Fe-rich phlogopite: The influence of the O, OH, F site Sample: T
 = 20 deg C
;
_cod_original_formula_sum
'K.82 Na.115 Mg2.28 Al1.711 Fe.12 Si2.784 O11.932 (F.068 H1.932)'
_cod_database_code               9004524
loop_
_space_group_symop_operation_xyz
x,y,z
1/2+x,1/2+y,z
x,-y,z
1/2+x,1/2-y,z
-x,y,-z
1/2-x,1/2+y,-z
-x,-y,-z
1/2-x,1/2-y,-z
loop_
_atom_site_aniso_label
_atom_site_aniso_U_11
_atom_site_aniso_U_22
_atom_site_aniso_U_33
_atom_site_aniso_U_12
_atom_site_aniso_U_13
_atom_site_aniso_U_23
K 0.34090 0.03550 0.03810 0.00000 0.00560 0.00000
Na 0.34090 0.03550 0.03810 0.00000 0.00560 0.00000
Mg1 0.00330 0.00220 0.01580 0.00000 0.00220 0.00000
Al1 0.00330 0.00220 0.01580 0.00000 0.00220 0.00000
Fe1 0.00330 0.00220 0.01580 0.00000 0.00220 0.00000
Mg2 0.00070 0.00250 0.01450 0.00000 0.00060 0.00000
Al2 0.00070 0.00250 0.01450 0.00000 0.00060 0.00000
Fe2 0.00070 0.00250 0.01450 0.00000 0.00060 0.00000
Si 0.00510 0.00600 0.01590 0.00000 0.00210 0.00000
Al 0.00510 0.00600 0.01590 0.00000 0.00210 0.00000
O1 0.01650 0.01520 0.02150 0.00000 0.00190 0.00000
O2 0.01070 0.01770 0.02540 0.00630 0.00600 0.00420
O3 0.00610 0.00590 0.01760 0.00020 0.00120 0.00030
OH4 0.01660 0.01750 0.02920 0.00000 0.00200 0.00000
F4 0.01660 0.01750 0.02920 0.00000 0.00200 0.00000
loop_
_atom_site_label
_atom_site_fract_x
_atom_site_fract_y
_atom_site_fract_z
_atom_site_occupancy
_atom_site_type_symbol
_atom_site_attached_hydrogens
K 0.00000 0.50000 0.00000 0.82000 K 0
Na 0.00000 0.50000 0.00000 0.11500 Na 0
Mg1 0.00000 0.00000 0.50000 0.76000 Mg 0
Al1 0.00000 0.00000 0.50000 0.16500 Al 0
Fe1 0.00000 0.00000 0.50000 0.04000 Fe 0
Mg2 0.00000 0.33180 0.50000 0.76000 Mg 0
Al2 0.00000 0.33180 0.50000 0.16500 Al 0
Fe2 0.00000 0.33180 0.50000 0.04000 Fe 0
Si 0.07590 0.16680 0.22820 0.69600 Si 0
Al 0.07590 0.16680 0.22820 0.30400 Al 0
O1 -0.00010 0.00000 0.17130 1.00000 O 0
O2 0.33640 0.22140 0.17140 1.00000 O 0
O3 0.13170 0.16770 0.39250 1.00000 O 0
O-H4 0.13090 0.50000 0.39850 0.96600 O 1
F4 0.13090 0.50000 0.39850 0.03400 F 0
loop_
_cod_changelog_entry_id
_cod_changelog_entry_author
_cod_changelog_entry_date
_cod_changelog_entry_text
1
;cod-tools version 3.8.0
Id: cif_guess_AMCSD_atom_types 9574 2023-05-10 09:00:05Z saulius
;
2023-05-10T18:49:12+03:00
;Derived atom types and hydrogen counts
from atom names that follow the AMCSD naming convention
(Wat == water, O-H == hydroxyl).
;
loop_
_cod_related_entry_id
_cod_related_entry_database
_cod_related_entry_code
1 AMCSD 0005599
