#------------------------------------------------------------------------------
#$Date: 2023-05-10 20:44:19 +0300 (Wed, 10 May 2023) $
#$Revision: 283658 $
#$URL: file:///home/coder/svn-repositories/cod/cif/9/00/46/9004655.cif $
#------------------------------------------------------------------------------
#
# This file is available in the Crystallography Open Database (COD),
# http://www.crystallography.net/. The original data for this entry
# were provided the American Mineralogist Crystal Structure Database,
# http://rruff.geo.arizona.edu/AMS/amcsd.php
#
# The file may be used within the scientific community so long as
# proper attribution is given to the journal article from which the
# data were obtained.
#
data_9004655
loop_
_publ_author_name
'Brigatti, M. F.'
'Medici, L.'
'Poppi, L.'
'Vaccaro, C.'
_publ_section_title
;
 Crystal chemistry of trioctahedral micas - 1M from the Alto Paranaiba
 Igneous Province, Southeastern Brazil
 Sample: Ta9, ferroan
;
_journal_name_full               'The Canadian Mineralogist'
_journal_page_first              1333
_journal_page_last               1345
_journal_paper_doi               10.2113/gscanmin.39.5.1333
_journal_volume                  39
_journal_year                    2001
_chemical_compound_source
'Alto Paranaiba Igneous Province, Southeastern Brazil'
_chemical_formula_sum
'Al0.92 Ba0.02 F0.02 Fe1.22 H1.82 K0.98 Mg1.74 Mn0.03 O11.98 Si3 Ti0.09'
_chemical_name_mineral           Phlogopite
_space_group_IT_number           12
_symmetry_space_group_name_Hall  '-C 2y'
_symmetry_space_group_name_H-M   'C 1 2/m 1'
_cell_angle_alpha                90
_cell_angle_beta                 100.01
_cell_angle_gamma                90
_cell_formula_units_Z            2
_cell_length_a                   5.344
_cell_length_b                   9.259
_cell_length_c                   10.280
_cell_volume                     500.912
_database_code_amcsd             0005748
_exptl_crystal_density_diffrn    3.053
_cod_original_formula_sum
'O11.98 F.02 Si3 Al.92 Fe1.22 Mg1.74 Ti.09 Mn.03 (K.98 Ba.02) H1.82'
_cod_database_code               9004655
loop_
_space_group_symop_operation_xyz
x,y,z
1/2+x,1/2+y,z
x,-y,z
1/2+x,1/2-y,z
-x,y,-z
1/2-x,1/2+y,-z
-x,-y,-z
1/2-x,1/2-y,-z
loop_
_atom_site_aniso_label
_atom_site_aniso_U_11
_atom_site_aniso_U_22
_atom_site_aniso_U_33
_atom_site_aniso_U_12
_atom_site_aniso_U_13
_atom_site_aniso_U_23
O1 0.02385 0.01390 0.01350 0.00000 -0.00135 0.00000
O2 0.01628 0.02302 0.01402 -0.00642 0.00378 -0.00332
O3 0.00617 0.00825 0.00935 0.00000 0.00108 0.00000
OH4 0.00702 0.00651 0.01194 0.00000 0.00135 0.00000
F4 0.00702 0.00651 0.01194 0.00000 0.00135 0.00000
O4 0.00702 0.00651 0.01194 0.00000 0.00135 0.00000
SiT 0.00688 0.00695 0.01142 0.00000 0.00135 0.00000
AlT 0.00688 0.00695 0.01142 0.00000 0.00135 0.00000
FeT 0.00688 0.00695 0.01142 0.00000 0.00135 0.00000
MgM1 0.00688 0.00608 0.01506 0.00000 0.00243 0.00000
FeM1 0.00688 0.00608 0.01506 0.00000 0.00243 0.00000
TiM1 0.00688 0.00608 0.01506 0.00000 0.00243 0.00000
MnM1 0.00688 0.00608 0.01506 0.00000 0.00243 0.00000
MgM2 0.00589 0.00869 0.01350 0.00000 0.00189 0.00000
FeM2 0.00589 0.00869 0.01350 0.00000 0.00189 0.00000
TiM2 0.00589 0.00869 0.01350 0.00000 0.00189 0.00000
MnM2 0.00589 0.00869 0.01350 0.00000 0.00189 0.00000
KA 0.03648 0.03952 0.02596 0.00000 0.00405 0.00000
BaA 0.03648 0.03952 0.02596 0.00000 0.00405 0.00000
loop_
_atom_site_label
_atom_site_fract_x
_atom_site_fract_y
_atom_site_fract_z
_atom_site_occupancy
_atom_site_U_iso_or_equiv
_atom_site_type_symbol
_atom_site_attached_hydrogens
O1 0.02190 0.00000 0.16900 1.00000 0.01748 O 0
O2 0.32320 0.23300 0.16950 1.00000 0.01773 O 0
O3 0.13060 0.16720 0.39050 1.00000 0.00785 O 0
O-H4 0.13180 0.50000 0.39630 0.91000 0.00836 O 1
F4 0.13180 0.50000 0.39630 0.01000 0.00836 F 0
O4 0.13180 0.50000 0.39630 0.08000 0.00836 O 0
SiT 0.07580 0.16671 0.22728 0.75000 0.00849 Si 0
AlT 0.07580 0.16671 0.22728 0.23000 0.00849 Al 0
FeT 0.07580 0.16671 0.22728 0.02000 0.00849 Fe 0
MgM1 0.00000 0.00000 0.50000 0.58000 0.00937 Mg 0
FeM1 0.00000 0.00000 0.50000 0.38000 0.00937 Fe 0
TiM1 0.00000 0.00000 0.50000 0.03000 0.00937 Ti 0
MnM1 0.00000 0.00000 0.50000 0.01000 0.00937 Mn 0
MgM2 0.00000 0.33310 0.50000 0.58000 0.00950 Mg 0
FeM2 0.00000 0.33310 0.50000 0.38000 0.00950 Fe 0
TiM2 0.00000 0.33310 0.50000 0.03000 0.00950 Ti 0
MnM2 0.00000 0.33310 0.50000 0.01000 0.00950 Mn 0
KA 0.00000 0.50000 0.00000 0.98000 0.03420 K 0
BaA 0.00000 0.50000 0.00000 0.02000 0.03420 Ba 0
loop_
_cod_changelog_entry_id
_cod_changelog_entry_author
_cod_changelog_entry_date
_cod_changelog_entry_text
1
;cod-tools version 3.8.0
Id: cif_guess_AMCSD_atom_types 9574 2023-05-10 09:00:05Z saulius
;
2023-05-10T18:49:24+03:00
;Derived atom types and hydrogen counts
from atom names that follow the AMCSD naming convention
(Wat == water, O-H == hydroxyl).
;
loop_
_cod_related_entry_id
_cod_related_entry_database
_cod_related_entry_code
1 AMCSD 0005748
