#------------------------------------------------------------------------------
#$Date: 2023-05-23 11:35:25 +0300 (Tue, 23 May 2023) $
#$Revision: 283960 $
#$URL: file:///home/coder/svn-repositories/cod/cif/9/00/46/9004668.cif $
#------------------------------------------------------------------------------
#
# This file is available in the Crystallography Open Database (COD),
# http://www.crystallography.net/. The original data for this entry
# were provided the American Mineralogist Crystal Structure Database,
# http://rruff.geo.arizona.edu/AMS/amcsd.php
#
# The file may be used within the scientific community so long as
# proper attribution is given to the journal article from which the
# data were obtained.
#
data_9004668
loop_
_publ_author_name
'Sokolova, E. V.'
'Huminicki, D. M. C.'
'Hawthorne, F. C.'
'Agakhanov, A. A.'
'Pautov, L. A.'
'Grew, E. S.'
_publ_section_title
;
 The crystal chemistry of telyushenkoite and leifite, A Na6[Be2Al3Si15O39F2],
 A = Cs, Na
;
_journal_name_full               'The Canadian Mineralogist'
_journal_page_first              183
_journal_page_last               192
_journal_paper_doi               10.2113/gscanmin.40.1.183
_journal_volume                  40
_journal_year                    2002
_chemical_formula_sum
'Al2.04 Be2 Cs0.74 F2 K0.14 Na6.1 O39 Rb0.02 Si15.66 Zn0.3'
_chemical_name_mineral           Telyushenkoite
_space_group_IT_number           164
_symmetry_space_group_name_Hall  '-P 3 2"'
_symmetry_space_group_name_H-M   'P -3 m 1'
_cell_angle_alpha                90
_cell_angle_beta                 90
_cell_angle_gamma                120
_cell_formula_units_Z            1
_cell_length_a                   14.3770
_cell_length_b                   14.3770
_cell_length_c                   4.8786
_cell_volume                     873.298
_database_code_amcsd             0005761
_exptl_crystal_density_diffrn    2.739
_cod_original_formula_sum
'Si15.66 Al2.04 Zn.3 Be2 Na6.1 Cs.74 Rb.02 K.14 O39 F2'
_cod_database_code               9004668
loop_
_space_group_symop_operation_xyz
x,y,z
-y,-x,z
y,-x+y,-z
-x,-x+y,-z
-x+y,-x,z
-x+y,y,z
-x,-y,-z
y,x,-z
-y,x-y,z
x,x-y,z
x-y,x,-z
x-y,-y,-z
loop_
_atom_site_aniso_label
_atom_site_aniso_U_11
_atom_site_aniso_U_22
_atom_site_aniso_U_33
_atom_site_aniso_U_12
_atom_site_aniso_U_13
_atom_site_aniso_U_23
SiT1 0.01370 0.01430 0.01050 0.00680 -0.00150 -0.00070
AlT1 0.01370 0.01430 0.01050 0.00680 -0.00150 -0.00070
ZnT1 0.01370 0.01430 0.01050 0.00680 -0.00150 -0.00070
SiT2 0.01170 0.01060 0.00960 0.00580 -0.00040 -0.00020
SiT3 0.00920 0.00920 0.00740 0.00630 -0.00020 0.00020
BeT4 0.00820 0.00820 0.00860 0.00410 0.00000 0.00000
Na 0.02130 0.02130 0.01610 0.00720 0.00330 -0.00330
CsA 0.03120 0.03120 0.02000 0.01560 0.00000 0.00000
RbA 0.03120 0.03120 0.02000 0.01560 0.00000 0.00000
KA 0.03120 0.03120 0.02000 0.01560 0.00000 0.00000
NaA 0.03120 0.03120 0.02000 0.01560 0.00000 0.00000
O1 0.03490 0.03490 0.02000 0.00840 -0.00670 0.00670
O2 0.02290 0.01600 0.01870 0.00970 0.00890 0.00750
O3 0.01440 0.01120 0.01350 0.00720 -0.00380 -0.00300
O4 0.01860 0.00820 0.01320 0.00410 -0.00190 -0.00380
O5 0.01410 0.01410 0.00850 0.01060 0.00060 -0.00060
F 0.01750 0.01750 0.00580 0.00880 0.00000 0.00000
loop_
_atom_site_label
_atom_site_fract_x
_atom_site_fract_y
_atom_site_fract_z
_atom_site_occupancy
_atom_site_U_iso_or_equiv
_atom_site_type_symbol
_atom_site_attached_hydrogens
SiT1 0.00000 0.21677 0.50000 0.61000 0.01290 Si 0
AlT1 0.00000 0.21677 0.50000 0.34000 0.01290 Al 0
ZnT1 0.00000 0.21677 0.50000 0.05000 0.01290 Zn 0
SiT2 0.00000 0.34441 0.00000 1.00000 0.01050 Si 0
SiT3 0.44759 -0.44759 0.30680 1.00000 0.00780 Si 0
BeT4 0.33333 0.66667 0.36700 1.00000 0.00830 Be 0
Na 0.75039 -0.75039 0.20290 1.00000 0.02120 Na 0
CsA 0.00000 0.00000 0.00000 0.74000 0.02750 Cs 0
RbA 0.00000 0.00000 0.00000 0.02000 0.02750 Rb 0
KA 0.00000 0.00000 0.00000 0.14000 0.02750 K 0
NaA 0.00000 0.00000 0.00000 0.10000 0.02750 Na 0
O1 0.10090 -0.10090 0.39200 1.00000 0.03400 O 0
O2 0.30810 0.26120 0.24730 1.00000 0.01930 O 0
O3 0.35970 0.45850 0.10470 1.00000 0.01270 O 0
O4 0.50000 0.00000 0.50000 1.00000 0.01450 O 0
O5 0.39440 -0.39440 0.48250 1.00000 0.01070 O 0
F 0.33333 0.66667 0.04380 1.00000 0.01360 F 0
loop_
_cod_changelog_entry_id
_cod_changelog_entry_author
_cod_changelog_entry_date
_cod_changelog_entry_text
1
;cod-tools version 3.8.0
Id: cif_guess_AMCSD_atom_types 9581 2023-05-17 12:35:41Z saulius
;
2023-05-23T09:18:54+03:00
;Derived atom types and hydrogen counts
from atom names that follow the AMCSD naming convention
(Wat == water, O-H == hydroxyl).
;
loop_
_cod_related_entry_id
_cod_related_entry_database
_cod_related_entry_code
1 AMCSD 0005761
