#------------------------------------------------------------------------------
#$Date: 2024-04-25 17:59:02 +0300 (Thu, 25 Apr 2024) $
#$Revision: 291351 $
#$URL: file:///home/coder/svn-repositories/cod/cif/9/00/49/9004994.cif $
#------------------------------------------------------------------------------
#
# This file is available in the Crystallography Open Database (COD),
# http://www.crystallography.net/. The original data for this entry
# were provided the American Mineralogist Crystal Structure Database,
# http://rruff.geo.arizona.edu/AMS/amcsd.php
#
# The file may be used within the scientific community so long as
# proper attribution is given to the journal article from which the
# data were obtained.
#
data_9004994
loop_
_publ_author_name
'Mellini, M.'
'Zanazzi, P. F.'
_publ_section_title
;
 Effects of pressure on the structure of lizardite-1T
 Sample: at P = 12.5 kbar
;
_journal_name_full               'European Journal of Mineralogy'
_journal_page_first              13
_journal_page_last               19
_journal_paper_doi               10.1127/ejm/01/1/0013
_journal_volume                  1
_journal_year                    1989
_chemical_compound_source        'Val Sissone'
_chemical_formula_sum            'Al0.22 Fe0.15 H4 Mg2.79 O9 Si1.84'
_chemical_name_mineral           Lizardite
_space_group_IT_number           157
_symmetry_space_group_name_Hall  'P 3 -2'
_symmetry_space_group_name_H-M   'P 3 1 m'
_cell_angle_alpha                90
_cell_angle_beta                 90
_cell_angle_gamma                120
_cell_length_a                   5.316
_cell_length_b                   5.316
_cell_length_c                   7.150
_cell_formula_units_Z            1
_cell_volume                     174.987
_database_code_amcsd             0006339
_diffrn_ambient_pressure         1.25e+06
_exptl_crystal_density_diffrn    2.674
_cod_original_formula_sum        'Mg2.79 Fe.15 Al.22 Si1.84 O9 H4'
_cod_database_code               9004994
loop_
_space_group_symop_operation_xyz
x,y,z
x-y,-y,z
-y,x-y,z
y,x,z
-x+y,-x,z
-x,-x+y,z
loop_
_atom_site_label
_atom_site_fract_x
_atom_site_fract_y
_atom_site_fract_z
_atom_site_occupancy
_atom_site_U_iso_or_equiv
Mg 0.33700 0.00000 0.45700 0.93000 0.03200
Fe 0.33700 0.00000 0.45700 0.05000 0.03200
Al 0.33700 0.00000 0.45700 0.02000 0.03200
Si 0.33333 0.66667 0.06700 0.92000 0.00800
Al 0.33333 0.66667 0.06700 0.08000 0.00800
O1 0.33333 0.66667 0.29100 1.00000 0.00100
O2 0.00000 0.51300 -0.01700 1.00000 0.00600
O3 0.00000 0.66800 0.58700 1.00000 0.03300
O4 0.00000 0.00000 0.27000 1.00000 0.00300
H3 0.64000 0.00000 0.71000 1.00000 0.04000
H4 0.00000 0.00000 0.11000 1.00000 0.04000
loop_
_cod_related_entry_id
_cod_related_entry_database
_cod_related_entry_code
1 AMCSD 0006339
