#------------------------------------------------------------------------------
#$Date: 2024-04-25 17:59:02 +0300 (Thu, 25 Apr 2024) $
#$Revision: 291351 $
#$URL: file:///home/coder/svn-repositories/cod/cif/9/00/48/9004882.cif $
#------------------------------------------------------------------------------
#
# This file is available in the Crystallography Open Database (COD),
# http://www.crystallography.net/. The original data for this entry
# were provided the American Mineralogist Crystal Structure Database,
# http://rruff.geo.arizona.edu/AMS/amcsd.php
#
# The file may be used within the scientific community so long as
# proper attribution is given to the journal article from which the
# data were obtained.
#
data_9004882
loop_
_publ_author_name
'Losey, A.'
'Rakovan, J. F.'
'Hughes, J. M.'
'Francis, C. A.'
'Dyar, M. D.'
_publ_section_title
;
 Structural variation in the lithiophilite-triphylite series
 and other olivine-group structures
 Sample: Trip27
;
_journal_name_full               'The Canadian Mineralogist'
_journal_page_first              1105
_journal_page_last               1115
_journal_paper_doi               10.2113/gscanmin.42.4.1105
_journal_volume                  42
_journal_year                    2004
_chemical_compound_source        'Fillow Quarry, Branchville, Connecticut'
_chemical_formula_sum            'Fe0.265 Li Mn0.704 O4 P'
_chemical_name_mineral           Lithiophilite
_space_group_IT_number           62
_symmetry_space_group_name_Hall  '-P 2c 2ab'
_symmetry_space_group_name_H-M   'P b n m'
_cell_angle_alpha                90
_cell_angle_beta                 90
_cell_angle_gamma                90
_cell_length_a                   4.7247
_cell_length_b                   10.4084
_cell_length_c                   6.0705
_cell_formula_units_Z            4
_cell_volume                     298.526
_database_code_amcsd             0005977
_exptl_crystal_density_diffrn    3.457
_cod_original_formula_sum        'Li Mn.704 Fe.265 P O4'
_cod_database_code               9004882
loop_
_space_group_symop_operation_xyz
x,y,z
x,y,1/2-z
-x,-y,1/2+z
1/2+x,1/2-y,1/2+z
1/2-x,1/2+y,1/2-z
1/2-x,1/2+y,z
1/2+x,1/2-y,-z
-x,-y,-z
loop_
_atom_site_label
_atom_site_fract_x
_atom_site_fract_y
_atom_site_fract_z
_atom_site_occupancy
_atom_site_U_iso_or_equiv
Li 0.00000 0.00000 0.00000 1.00000 0.02014
Mn 0.97253 0.28183 0.25000 0.70400 0.00707
Fe 0.97253 0.28183 0.25000 0.26500 0.00707
P 0.41130 0.09309 0.25000 1.00000 0.00709
O1 0.73430 0.09680 0.25000 1.00000 0.01077
O2 0.21040 0.45590 0.25000 1.00000 0.01089
O3 0.27870 0.16250 0.04870 1.00000 0.01089
loop_
_cod_related_entry_id
_cod_related_entry_database
_cod_related_entry_code
1 AMCSD 0005977
