#------------------------------------------------------------------------------
#$Date: 2024-04-25 17:59:02 +0300 (Thu, 25 Apr 2024) $
#$Revision: 291351 $
#$URL: file:///home/coder/svn-repositories/cod/cif/9/00/43/9004346.cif $
#------------------------------------------------------------------------------
#
# This file is available in the Crystallography Open Database (COD),
# http://www.crystallography.net/. The original data for this entry
# were provided the American Mineralogist Crystal Structure Database,
# http://rruff.geo.arizona.edu/AMS/amcsd.php
#
# The file may be used within the scientific community so long as
# proper attribution is given to the journal article from which the
# data were obtained.
#
data_9004346
loop_
_publ_author_name
'Jenkins, D. M.'
'Hawthorne, F. C.'
_publ_section_title
;
 Synthesis and rietveld refinement of amphibole along
 the join Ca2Mg5Si8O22F2 - NaCa2Mg4Ga3Si6O22F2
 Sample: TREM 19-3
;
_journal_name_full               'The Canadian Mineralogist'
_journal_page_first              13
_journal_page_last               24
_journal_volume                  33
_journal_year                    1995
_chemical_compound_source        Synthetic
_chemical_formula_sum            'Ca1.92 F2 Mg5.08 O22 Si8'
_chemical_name_mineral           Tremolite
_space_group_IT_number           12
_symmetry_space_group_name_Hall  '-C 2y'
_symmetry_space_group_name_H-M   'C 1 2/m 1'
_cell_angle_alpha                90
_cell_angle_beta                 104.680
_cell_angle_gamma                90
_cell_length_a                   9.8182
_cell_length_b                   18.032
_cell_length_c                   5.2699
_cell_formula_units_Z            2
_cell_volume                     902.536
_database_code_amcsd             0005419
_exptl_crystal_density_diffrn    2.999
_cod_original_formula_sum        'Si8 Mg5.08 Ca1.92 O22 F2'
_cod_database_code               9004346
loop_
_space_group_symop_operation_xyz
x,y,z
1/2+x,1/2+y,z
x,-y,z
1/2+x,1/2-y,z
-x,y,-z
1/2-x,1/2+y,-z
-x,-y,-z
1/2-x,1/2-y,-z
loop_
_atom_site_label
_atom_site_fract_x
_atom_site_fract_y
_atom_site_fract_z
_atom_site_occupancy
_atom_site_U_iso_or_equiv
SiT1 0.28440 0.08330 0.30580 1.00000 0.00507
SiT2 0.29000 0.16990 0.80050 1.00000 0.00507
MgM1 0.00000 0.08960 0.50000 1.00000 0.00760
MgM2 0.00000 0.17620 0.00000 1.00000 0.00760
MgM3 0.00000 0.00000 0.00000 1.00000 0.00760
CaM4 0.00000 0.27590 0.50000 0.96000 0.01140
MgM4 0.00000 0.27590 0.50000 0.04000 0.01140
O1 0.11810 0.08630 0.21530 1.00000 0.01013
O2 0.11830 0.16970 0.72720 1.00000 0.01013
F3 0.10050 0.00000 0.70600 1.00000 0.01013
O4 0.35650 0.24470 0.78840 1.00000 0.01013
O5 0.34320 0.13210 0.09610 1.00000 0.01267
O6 0.34890 0.11610 0.59110 1.00000 0.01267
O7 0.34450 0.00000 0.28800 1.00000 0.01520
loop_
_cod_related_entry_id
_cod_related_entry_database
_cod_related_entry_code
1 AMCSD 0005419
