#------------------------------------------------------------------------------
#$Date: 2024-04-25 17:59:02 +0300 (Thu, 25 Apr 2024) $
#$Revision: 291351 $
#$URL: file:///home/coder/svn-repositories/cod/cif/9/00/54/9005420.cif $
#------------------------------------------------------------------------------
#
# This file is available in the Crystallography Open Database (COD),
# http://www.crystallography.net/. The original data for this entry
# were provided the American Mineralogist Crystal Structure Database,
# http://rruff.geo.arizona.edu/AMS/amcsd.php
#
# The file may be used within the scientific community so long as
# proper attribution is given to the journal article from which the
# data were obtained.
#
data_9005420
loop_
_publ_author_name
'Troitzsch, U.'
'Ellis, D. J.'
'Thompson, J.'
'Fitz-Gerald J'
_publ_section_title
;
 Crystal structural changes in titanite along the join TiO-AlF
 Sample: AlF82
;
_journal_name_full               'European Journal of Mineralogy'
_journal_page_first              955
_journal_page_last               965
_journal_volume                  11
_journal_year                    1999
_chemical_formula_sum            'Al0.819 Ca F0.819 O4.181 Si Ti0.181'
_chemical_name_mineral           Titanite
_space_group_IT_number           15
_symmetry_space_group_name_Hall  '-A 2ya'
_symmetry_space_group_name_H-M   'A 1 2/a 1'
_cell_angle_alpha                90
_cell_angle_beta                 114.585
_cell_angle_gamma                90
_cell_length_a                   6.9580
_cell_length_b                   8.5445
_cell_length_c                   6.4612
_cell_formula_units_Z            4
_cell_volume                     349.312
_database_code_amcsd             0006805
_exptl_crystal_density_diffrn    3.449
_cod_original_formula_sum        'Ca (Al.819 Ti.181) Si O4.181 F.819'
_cod_database_code               9005420
loop_
_space_group_symop_operation_xyz
x,y,z
x,1/2+y,1/2+z
1/2+x,-y,z
1/2+x,1/2-y,1/2+z
1/2-x,y,-z
1/2-x,1/2+y,1/2-z
-x,-y,-z
-x,1/2-y,1/2-z
loop_
_atom_site_label
_atom_site_fract_x
_atom_site_fract_y
_atom_site_fract_z
_atom_site_occupancy
_atom_site_U_iso_or_equiv
Ca 0.25000 0.16230 0.00000 1.00000 0.02368
Aloct 0.50000 0.00000 0.50000 0.81900 0.02786
Tioct 0.50000 0.00000 0.50000 0.18100 0.02786
Si 0.75000 0.18650 0.00000 1.00000 0.01836
O1 0.75000 0.06980 0.50000 0.18100 0.01203
F1 0.75000 0.06980 0.50000 0.81900 0.01203
O2 0.90280 0.06240 0.19010 1.00000 0.01203
O3 0.38450 0.20280 0.40490 1.00000 0.01203
loop_
_cod_related_entry_id
_cod_related_entry_database
_cod_related_entry_code
1 AMCSD 0006805
