#------------------------------------------------------------------------------
#$Date: 2023-05-18 12:25:40 +0300 (Thu, 18 May 2023) $
#$Revision: 283857 $
#$URL: file:///home/coder/svn-repositories/cod/cif/9/00/55/9005503.cif $
#------------------------------------------------------------------------------
#
# This file is available in the Crystallography Open Database (COD),
# http://www.crystallography.net/. The original data for this entry
# were provided the American Mineralogist Crystal Structure Database,
# http://rruff.geo.arizona.edu/AMS/amcsd.php
#
# The file may be used within the scientific community so long as
# proper attribution is given to the journal article from which the
# data were obtained.
#
data_9005503
loop_
_publ_author_name
'Voll, D.'
'Lengauer, C.'
'Beran, A.'
'Schneider, H.'
_publ_section_title
;
 Infrared band assignment and structural refinement of
 Al-Si, Al-Ge, and Ga-Ge mullites
 Sample: Al-Ge powder data
;
_journal_name_full               'European Journal of Mineralogy'
_journal_page_first              591
_journal_page_last               604
_journal_paper_doi               10.1127/0935-1221/2001/0013-0591
_journal_volume                  13
_journal_year                    2001
_chemical_formula_sum            'Al2.36 Ge0.64 O4.82'
_chemical_name_mineral           Mullite
_space_group_IT_number           55
_symmetry_space_group_name_Hall  '-P 2 2ab'
_symmetry_space_group_name_H-M   'P b a m'
_cell_angle_alpha                90
_cell_angle_beta                 90
_cell_angle_gamma                90
_cell_formula_units_Z            2
_cell_length_a                   7.6530
_cell_length_b                   7.7779
_cell_length_c                   2.9252
_cell_volume                     174.120
_database_code_amcsd             0006890
_exptl_crystal_density_diffrn    3.572
_cod_original_formula_sum        'Al2.36 Ge.64 O4.82'
_cod_database_code               9005503
loop_
_space_group_symop_operation_xyz
x,y,z
1/2+x,1/2-y,z
1/2-x,1/2+y,-z
1/2-x,1/2+y,z
1/2+x,1/2-y,-z
x,y,-z
-x,-y,z
-x,-y,-z
loop_
_atom_site_label
_atom_site_fract_x
_atom_site_fract_y
_atom_site_fract_z
_atom_site_occupancy
_atom_site_U_iso_or_equiv
_atom_site_type_symbol
_atom_site_attached_hydrogens
AlM 0.00000 0.00000 0.00000 1.00000 0.01153 Al 0
AlT 0.15000 0.33910 0.50000 0.50000 0.01241 Al 0
GeT 0.15000 0.33910 0.50000 0.32000 0.01241 Ge 0
AlT* 0.27010 0.20360 0.50000 0.18000 0.01140 Al 0
Od 0.12870 0.21280 0.00000 1.00000 0.01798 O 0
Oab 0.36310 0.42080 0.50000 1.00000 0.01798 O 0
Oc 0.50000 0.00000 0.50000 0.46000 0.02153 O 0
Oc* 0.45200 0.04700 0.50000 0.18000 0.01267 O 0
loop_
_cod_changelog_entry_id
_cod_changelog_entry_author
_cod_changelog_entry_date
_cod_changelog_entry_text
1
;cod-tools version 3.8.0
Id: cif_guess_AMCSD_atom_types 9581 2023-05-17 12:35:41Z saulius
;
2023-05-18T11:39:23+03:00
;Derived atom types and hydrogen counts
from atom names that follow the AMCSD naming convention
(Wat == water, O-H == hydroxyl).
;
loop_
_cod_related_entry_id
_cod_related_entry_database
_cod_related_entry_code
1 AMCSD 0006890
