#------------------------------------------------------------------------------
#$Date: 2024-04-25 17:59:02 +0300 (Thu, 25 Apr 2024) $
#$Revision: 291351 $
#$URL: file:///home/coder/svn-repositories/cod/cif/9/00/58/9005877.cif $
#------------------------------------------------------------------------------
#
# This file is available in the Crystallography Open Database (COD),
# http://www.crystallography.net/. The original data for this entry
# were provided the American Mineralogist Crystal Structure Database,
# http://rruff.geo.arizona.edu/AMS/amcsd.php
#
# The file may be used within the scientific community so long as
# proper attribution is given to the journal article from which the
# data were obtained.
#
data_9005877
loop_
_publ_author_name
'Percival, M. J. L.'
'Schmahl, W. W.'
'Salje, E.'
_publ_section_title
;
 Structure of cobalt doped K2Cd2(SO4)3 langbeinite at
 three temperatures above the P2_13-P2_12_12_1 phase transition,
 and a new trigger mechanism for the ferroelastic transformation
 Sample: T = 440 K
;
_journal_name_full               'Physics and Chemistry of Minerals'
_journal_page_first              569
_journal_page_last               575
_journal_paper_doi               10.1007/BF00202213
_journal_volume                  16
_journal_year                    1989
_chemical_formula_sum            'Cd2 K2 O12 S3'
_chemical_name_mineral           Langbeinite
_symmetry_space_group_name_H-M   'P 21 3'
_cell_angle_alpha                90
_cell_angle_beta                 90
_cell_angle_gamma                90
_cell_length_a                   10.2643
_cell_length_b                   10.2643
_cell_length_c                   10.2643
_cell_formula_units_Z            4
_cell_volume                     1081.404
_database_code_amcsd             0007459
_diffrn_ambient_temperature      440
_exptl_crystal_density_diffrn    3.631
_cod_original_formula_sum        'K2 Cd2 S3 O12'
_cod_database_code               9005877
_amcsd_formula_title             K2Cd2(SO4)3
loop_
_space_group_symop_operation_xyz
x,y,z
-z,1/2-x,1/2+y
1/2-z,1/2+x,-y
1/2+z,-x,1/2-y
z,x,y
1/2+y,-z,1/2-x
-y,1/2-z,1/2+x
1/2-y,1/2+z,-x
y,z,x
1/2-x,1/2+y,-z
1/2+x,-y,1/2-z
-x,1/2-y,1/2+z
loop_
_atom_site_aniso_label
_atom_site_aniso_U_11
_atom_site_aniso_U_22
_atom_site_aniso_U_33
_atom_site_aniso_U_12
_atom_site_aniso_U_13
_atom_site_aniso_U_23
K1 0.04050 0.04050 0.04050 -0.00220 -0.00220 -0.00220
K2 0.04320 0.04320 0.04320 0.00080 0.00080 0.00080
Cd1 0.02770 0.02770 0.02770 -0.00400 -0.00400 -0.00400
Cd2 0.02360 0.02360 0.02360 -0.00100 -0.00100 -0.00100
S1 0.01850 0.01890 0.01830 0.00400 0.00180 0.00080
O1 0.02630 0.11680 0.06470 0.01300 -0.01190 -0.03840
O2 0.05720 0.05430 0.11370 0.03310 -0.03390 0.00610
O3 0.07900 0.10780 0.03430 0.00790 -0.01600 -0.03090
O4 0.08260 0.06380 0.14330 0.06150 0.02580 0.02530
loop_
_atom_site_label
_atom_site_fract_x
_atom_site_fract_y
_atom_site_fract_z
K1 0.81460 0.81460 0.81460
K2 0.05200 0.05200 0.05200
Cd1 0.32984 0.32984 0.32984
Cd2 0.58701 0.58701 0.58701
S1 0.37520 0.22660 0.01170
O1 0.09620 0.00640 0.32440
O2 0.28110 0.31800 0.96020
O3 0.41750 0.26020 0.14310
O4 0.93110 0.48910 0.23940
loop_
_cod_related_entry_id
_cod_related_entry_database
_cod_related_entry_code
1 AMCSD 0007459
