#------------------------------------------------------------------------------
#$Date: 2023-05-10 20:44:19 +0300 (Wed, 10 May 2023) $
#$Revision: 283658 $
#$URL: file:///home/coder/svn-repositories/cod/cif/9/00/53/9005323.cif $
#------------------------------------------------------------------------------
#
# This file is available in the Crystallography Open Database (COD),
# http://www.crystallography.net/. The original data for this entry
# were provided the American Mineralogist Crystal Structure Database,
# http://rruff.geo.arizona.edu/AMS/amcsd.php
#
# The file may be used within the scientific community so long as
# proper attribution is given to the journal article from which the
# data were obtained.
#
data_9005323
loop_
_publ_author_name
'Krause, W.'
'Belendorff, K.'
'Bernhardt, H. J.'
'McCammon, C. A.'
'Effenberger, H.'
'Mikenda, W.'
_publ_section_title
;Crystal chemistry of the tsumcorite-group minerals. New data on
 ferrilotharmeyerite, tsumcorite, thometzekite, mounanaite, helmutwinklerite,
 and a redefinition of gartrellite
;
_journal_name_full               'European Journal of Mineralogy'
_journal_page_first              179
_journal_page_last               206
_journal_volume                  10
_journal_year                    1998
_chemical_compound_source        'Tsumeb mine, Namibia'
_chemical_formula_sum            'As2 Ca Fe0.994 H2 O10 Zn1.006'
_chemical_name_mineral           Ferrilotharmeyerite
_space_group_IT_number           12
_symmetry_space_group_name_Hall  '-C 2y'
_symmetry_space_group_name_H-M   'C 1 2/m 1'
_cell_angle_alpha                90
_cell_angle_beta                 115.52
_cell_angle_gamma                90
_cell_formula_units_Z            2
_cell_length_a                   9.010
_cell_length_b                   6.246
_cell_length_c                   7.391
_cell_volume                     375.358
_database_code_amcsd             0006708
_exptl_crystal_density_diffrn    4.187
_cod_original_formula_sum        'Ca (Fe.994 Zn1.006) As2 (O10 H2)'
_cod_database_code               9005323
loop_
_space_group_symop_operation_xyz
x,y,z
1/2+x,1/2+y,z
x,-y,z
1/2+x,1/2-y,z
-x,y,-z
1/2-x,1/2+y,-z
-x,-y,-z
1/2-x,1/2-y,-z
loop_
_atom_site_label
_atom_site_fract_x
_atom_site_fract_y
_atom_site_fract_z
_atom_site_occupancy
_atom_site_U_iso_or_equiv
_atom_site_type_symbol
_atom_site_attached_hydrogens
CaMe1 0.00000 0.00000 0.00000 1.00000 0.01165 Ca 0
FeMe2 0.25000 0.25000 0.50000 0.49700 0.00925 Fe 0
ZnMe2 0.25000 0.25000 0.50000 0.50300 0.00925 Zn 0
AsX 0.91466 0.50000 0.20451 1.00000 0.00760 As 0
O-H1 0.34390 0.50000 0.40830 1.00000 0.01165 O 1
O2 0.31830 0.00000 0.36210 1.00000 0.01418 O 0
O3 0.03390 0.27980 0.24530 1.00000 0.01127 O 0
O4 0.24290 0.50000 0.02060 1.00000 0.01570 O 0
loop_
_cod_changelog_entry_id
_cod_changelog_entry_author
_cod_changelog_entry_date
_cod_changelog_entry_text
1
;cod-tools version 3.8.0
Id: cif_guess_AMCSD_atom_types 9574 2023-05-10 09:00:05Z saulius
;
2023-05-10T18:49:59+03:00
;Derived atom types and hydrogen counts
from atom names that follow the AMCSD naming convention
(Wat == water, O-H == hydroxyl).
;
loop_
_cod_related_entry_id
_cod_related_entry_database
_cod_related_entry_code
1 AMCSD 0006708
