#------------------------------------------------------------------------------
#$Date: 2024-04-25 17:59:02 +0300 (Thu, 25 Apr 2024) $
#$Revision: 291351 $
#$URL: file:///home/coder/svn-repositories/cod/cif/9/00/58/9005863.cif $
#------------------------------------------------------------------------------
#
# This file is available in the Crystallography Open Database (COD),
# http://www.crystallography.net/. The original data for this entry
# were provided the American Mineralogist Crystal Structure Database,
# http://rruff.geo.arizona.edu/AMS/amcsd.php
#
# The file may be used within the scientific community so long as
# proper attribution is given to the journal article from which the
# data were obtained.
#
data_9005863
loop_
_publ_author_name
'Hazen, R. M.'
'Finger, L. W.'
_publ_section_title
;
 High-temperature crystal chemistry of phenakite (Be2SiO4) and
 Chrysoberyl (BeAl2O4)
 Sample: T = 490 C
;
_journal_name_full               'Physics and Chemistry of Minerals'
_journal_page_first              426
_journal_page_last               434
_journal_paper_doi               10.1007/BF00628819
_journal_volume                  14
_journal_year                    1987
_chemical_formula_sum            'Al2 Be O4'
_chemical_name_mineral           Chrysoberyl
_space_group_IT_number           62
_symmetry_space_group_name_Hall  '-P 2c 2ab'
_symmetry_space_group_name_H-M   'P b n m'
_cell_angle_alpha                90
_cell_angle_beta                 90
_cell_angle_gamma                90
_cell_length_a                   4.438
_cell_length_b                   9.429
_cell_length_c                   5.492
_cell_formula_units_Z            4
_cell_volume                     229.818
_database_code_amcsd             0007445
_diffrn_ambient_temperature      763.15
_exptl_crystal_density_diffrn    3.670
_cod_database_code               9005863
loop_
_space_group_symop_operation_xyz
x,y,z
x,y,1/2-z
-x,-y,1/2+z
1/2+x,1/2-y,1/2+z
1/2-x,1/2+y,1/2-z
1/2-x,1/2+y,z
1/2+x,1/2-y,-z
-x,-y,-z
loop_
_atom_site_label
_atom_site_fract_x
_atom_site_fract_y
_atom_site_fract_z
_atom_site_U_iso_or_equiv
Al1 0.00000 0.00000 0.00000 0.00684
Al2 0.99500 0.27332 0.25000 0.00545
Be 0.43530 0.09290 0.25000 0.01064
O1 0.78830 0.09040 0.25000 0.00722
O2 0.24240 0.43300 0.25000 0.00747
O3 0.25760 0.16280 0.01560 0.00773
loop_
_cod_related_entry_id
_cod_related_entry_database
_cod_related_entry_code
1 AMCSD 0007445
