#------------------------------------------------------------------------------
#$Date: 2023-05-18 15:51:33 +0300 (Thu, 18 May 2023) $
#$Revision: 283866 $
#$URL: file:///home/coder/svn-repositories/cod/cif/9/00/53/9005330.cif $
#------------------------------------------------------------------------------
#
# This file is available in the Crystallography Open Database (COD),
# http://www.crystallography.net/. The original data for this entry
# were provided the American Mineralogist Crystal Structure Database,
# http://rruff.geo.arizona.edu/AMS/amcsd.php
#
# The file may be used within the scientific community so long as
# proper attribution is given to the journal article from which the
# data were obtained.
#
data_9005330
loop_
_publ_author_name
'Stahl, K.'
'Hanson, J. C.'
_publ_section_title
;
 An in situ study of the edingtonite dehydration process from
 X-ray synchrotron powder diffraction
 Sample: 396 K
;
_journal_name_full               'European Journal of Mineralogy'
_journal_page_first              221
_journal_page_last               228
_journal_volume                  10
_journal_year                    1998
_chemical_formula_sum            'Al2 Ba0.9 Ca0.1 H3.809 O12.46 Si3'
_chemical_name_mineral           Edingtonite
_space_group_IT_number           18
_symmetry_space_group_name_Hall  'P 2 2ab'
_symmetry_space_group_name_H-M   'P 21 21 2'
_cell_angle_alpha                90
_cell_angle_beta                 90
_cell_angle_gamma                90
_cell_formula_units_Z            2
_cell_length_a                   9.4903
_cell_length_b                   9.5690
_cell_length_c                   6.5290
_cell_volume                     592.916
_database_code_amcsd             0006715
_exptl_crystal_density_diffrn    2.627
_cod_original_formula_sum        '(Ba.9 Ca.1) Al2 Si3 O12.46 H3.809'
_cod_database_code               9005330
loop_
_space_group_symop_operation_xyz
x,y,z
1/2-x,1/2+y,-z
1/2+x,1/2-y,-z
-x,-y,z
loop_
_atom_site_label
_atom_site_fract_x
_atom_site_fract_y
_atom_site_fract_z
_atom_site_occupancy
_atom_site_U_iso_or_equiv
_atom_site_type_symbol
_atom_site_attached_hydrogens
Ba 0.50000 0.00000 0.62840 0.90000 0.03420 Ba 0
Ca 0.50000 0.00000 0.62840 0.10000 0.03420 Ca 0
Al 0.08720 0.16720 0.62820 1.00000 0.02153 Al 0
Si1 0.00000 0.00000 0.00540 1.00000 0.02153 Si 0
Si2 -0.17550 0.09550 0.38450 1.00000 0.02153 Si 0
O1 0.17340 0.32080 0.62140 1.00000 0.01267 O 0
O2 -0.05950 0.20420 0.47240 1.00000 0.01267 O 0
O3 0.18340 0.03460 0.53520 1.00000 0.01267 O 0
O4 0.03580 0.13520 0.87660 1.00000 0.01267 O 0
O5 -0.13470 0.03250 0.16570 1.00000 0.01267 O 0
Wat1 0.13360 0.33380 0.12810 0.49000 0.04686 O 2
Wat2 0.38860 0.12920 -0.02130 0.74000 0.04686 O 2
loop_
_cod_changelog_entry_id
_cod_changelog_entry_author
_cod_changelog_entry_date
_cod_changelog_entry_text
1
;cod-tools version 3.8.0
Id: cif_guess_AMCSD_atom_types 9581 2023-05-17 12:35:41Z saulius
;
2023-05-18T11:39:14+03:00
;Derived atom types and hydrogen counts
from atom names that follow the AMCSD naming convention
(Wat == water, O-H == hydroxyl).
;
loop_
_cod_related_entry_id
_cod_related_entry_database
_cod_related_entry_code
1 AMCSD 0006715
