#------------------------------------------------------------------------------
#$Date: 2024-04-25 17:59:02 +0300 (Thu, 25 Apr 2024) $
#$Revision: 291351 $
#$URL: file:///home/coder/svn-repositories/cod/cif/9/00/54/9005469.cif $
#------------------------------------------------------------------------------
#
# This file is available in the Crystallography Open Database (COD),
# http://www.crystallography.net/. The original data for this entry
# were provided the American Mineralogist Crystal Structure Database,
# http://rruff.geo.arizona.edu/AMS/amcsd.php
#
# The file may be used within the scientific community so long as
# proper attribution is given to the journal article from which the
# data were obtained.
#
data_9005469
loop_
_publ_author_name
'Ridkosil, T.'
'Skala, R.'
'Johan, Z.'
'Srein, V.'
_publ_section_title
;
 Telluronevskite, Bi3TeSe2, a new mineral
;
_journal_name_full               'European Journal of Mineralogy'
_journal_page_first              177
_journal_page_last               185
_journal_paper_doi               10.1127/0935-1221/01/0013-0177
_journal_volume                  13
_journal_year                    2001
_chemical_formula_sum            'Bi2.94 S0.32 Se1.73 Te1.01'
_chemical_name_mineral           Telluronevskite
_space_group_IT_number           164
_symmetry_space_group_name_Hall  '-P 3 2"'
_symmetry_space_group_name_H-M   'P -3 m 1'
_cell_angle_alpha                90
_cell_angle_beta                 90
_cell_angle_gamma                120
_cell_length_a                   4.264
_cell_length_b                   4.264
_cell_length_c                   23.25
_cell_formula_units_Z            2
_cell_volume                     366.090
_database_code_amcsd             0006856
_exptl_crystal_density_diffrn    8.075
_cod_original_formula_sum        'Bi2.94 Te1.01 Se1.73 S.32'
_cod_database_code               9005469
loop_
_space_group_symop_operation_xyz
x,y,z
-y,-x,z
y,-x+y,-z
-x,-x+y,-z
-x+y,-x,z
-x+y,y,z
-x,-y,-z
y,x,-z
-y,x-y,z
x,x-y,z
x-y,x,-z
x-y,-y,-z
loop_
_atom_site_label
_atom_site_fract_x
_atom_site_fract_y
_atom_site_fract_z
_atom_site_occupancy
_atom_site_U_iso_or_equiv
Bi1 0.00000 0.00000 0.12650 0.98000 0.00684
Te1 0.00000 0.00000 0.12650 0.02000 0.00684
Bi2 0.33333 0.66667 0.29420 0.98000 0.00684
Te2 0.33333 0.66667 0.29420 0.02000 0.00684
Bi3 0.66667 0.33333 0.45890 0.98000 0.00684
Te3 0.66667 0.33333 0.45890 0.02000 0.00684
Te1 0.33333 0.66667 0.05660 0.95000 0.01748
Se1 0.33333 0.66667 0.05660 0.05000 0.01748
Se1 0.66667 0.33333 0.21570 0.84000 0.01748
S1 0.66667 0.33333 0.21570 0.16000 0.01748
Se2 0.00000 0.00000 0.36860 0.84000 0.01748
S2 0.00000 0.00000 0.36860 0.16000 0.01748
loop_
_cod_related_entry_id
_cod_related_entry_database
_cod_related_entry_code
1 AMCSD 0006856
