#------------------------------------------------------------------------------
#$Date: 2023-05-18 15:51:33 +0300 (Thu, 18 May 2023) $
#$Revision: 283866 $
#$URL: file:///home/coder/svn-repositories/cod/cif/9/00/53/9005329.cif $
#------------------------------------------------------------------------------
#
# This file is available in the Crystallography Open Database (COD),
# http://www.crystallography.net/. The original data for this entry
# were provided the American Mineralogist Crystal Structure Database,
# http://rruff.geo.arizona.edu/AMS/amcsd.php
#
# The file may be used within the scientific community so long as
# proper attribution is given to the journal article from which the
# data were obtained.
#
data_9005329
loop_
_publ_author_name
'Stahl, K.'
'Hanson, J. C.'
_publ_section_title
;
 An in situ study of the edingtonite dehydration process from
 X-ray synchrotron powder diffraction
 Sample: 310 K
;
_journal_name_full               'European Journal of Mineralogy'
_journal_page_first              221
_journal_page_last               228
_journal_volume                  10
_journal_year                    1998
_chemical_formula_sum            'Al2 Ba0.9 Ca0.1 H3.809 O13.08 Si3'
_chemical_name_mineral           Edingtonite
_space_group_IT_number           18
_symmetry_space_group_name_Hall  'P 2 2ab'
_symmetry_space_group_name_H-M   'P 21 21 2'
_cell_angle_alpha                90
_cell_angle_beta                 90
_cell_angle_gamma                90
_cell_formula_units_Z            2
_cell_length_a                   9.5374
_cell_length_b                   9.6127
_cell_length_c                   6.5233
_cell_volume                     598.057
_database_code_amcsd             0006714
_exptl_crystal_density_diffrn    2.660
_cod_original_formula_sum        '(Ba.9 Ca.1) Al2 Si3 O13.08 H3.809'
_cod_database_code               9005329
loop_
_space_group_symop_operation_xyz
x,y,z
1/2-x,1/2+y,-z
1/2+x,1/2-y,-z
-x,-y,z
loop_
_atom_site_label
_atom_site_fract_x
_atom_site_fract_y
_atom_site_fract_z
_atom_site_occupancy
_atom_site_U_iso_or_equiv
_atom_site_type_symbol
_atom_site_attached_hydrogens
Ba 0.50000 0.00000 0.63220 0.90000 0.03040 Ba 0
Ca 0.50000 0.00000 0.63220 0.10000 0.03040 Ca 0
Al 0.08870 0.16800 0.62410 1.00000 0.02026 Al 0
Si1 0.00000 0.00000 0.00520 1.00000 0.02026 Si 0
Si2 -0.17550 0.09520 0.38650 1.00000 0.02026 Si 0
O1 0.17510 0.32290 0.62330 1.00000 0.01393 O 0
O2 -0.05650 0.20000 0.46670 1.00000 0.01393 O 0
O3 0.18550 0.03600 0.53220 1.00000 0.01393 O 0
O4 0.03590 0.13460 0.87370 1.00000 0.01393 O 0
O5 -0.13480 0.03990 0.15690 1.00000 0.01393 O 0
Wat1 0.16820 0.32650 0.13780 0.73000 0.03800 O 2
Wat2 0.38620 0.12580 -0.01900 0.81000 0.03800 O 2
loop_
_cod_changelog_entry_id
_cod_changelog_entry_author
_cod_changelog_entry_date
_cod_changelog_entry_text
1
;cod-tools version 3.8.0
Id: cif_guess_AMCSD_atom_types 9581 2023-05-17 12:35:41Z saulius
;
2023-05-18T11:39:13+03:00
;Derived atom types and hydrogen counts
from atom names that follow the AMCSD naming convention
(Wat == water, O-H == hydroxyl).
;
loop_
_cod_related_entry_id
_cod_related_entry_database
_cod_related_entry_code
1 AMCSD 0006714
