#------------------------------------------------------------------------------
#$Date: 2023-03-26 11:09:57 +0300 (Sun, 26 Mar 2023) $
#$Revision: 282068 $
#$URL: file:///home/coder/svn-repositories/cod/cif/9/00/69/9006927.cif $
#------------------------------------------------------------------------------
#
# This file is available in the Crystallography Open Database (COD),
# http://www.crystallography.net/. The original data for this entry
# were provided the American Mineralogist Crystal Structure Database,
# http://rruff.geo.arizona.edu/AMS/amcsd.php
#
# The file may be used within the scientific community so long as
# proper attribution is given to the journal article from which the
# data were obtained.
#
data_9006927
loop_
_publ_author_name
'Kusaka, K.'
'Hagiya, K.'
'Ohmasa, M.'
'Okano, Y.'
'Mukai, M.'
'Iishi, K.'
'Haga, N.'
_publ_section_title
;Determination of structures of Ca2CoSi2O7, Ca2MgSi2O7, and
 Ca2(Mg.55Fe.45)Si2O7 in incommensurate and normal phases and observation of
 diffuse streaks at high temperature Sample: T = 393 K Melilite group
;
_journal_name_full               'Physics and Chemistry of Minerals'
_journal_page_first              150
_journal_page_last               166
_journal_paper_doi               10.1007/s002690000147
_journal_volume                  28
_journal_year                    2001
_chemical_formula_structural     Ca2CoSi2O7
_chemical_formula_sum            'Ca2 Co O7 Si2'
_space_group_IT_number           113
_symmetry_space_group_name_Hall  'P -4 2ab'
_symmetry_space_group_name_H-M   'P -4 21 m'
_cell_angle_alpha                90
_cell_angle_beta                 90
_cell_angle_gamma                90
_cell_length_a                   7.8507
_cell_length_b                   7.8507
_cell_length_c                   5.0281
_cell_volume                     309.899
_database_code_amcsd             0008509
_diffrn_ambient_temperature      393
_exptl_crystal_density_diffrn    3.293
_cod_original_formula_sum        'Co Ca2 Si2 O7'
_cod_database_code               9006927
_amcsd_formula_title             Ca2CoSi2O7
loop_
_space_group_symop_operation_xyz
x,y,z
1/2-y,1/2-x,z
y,-x,-z
1/2-x,1/2+y,-z
-x,-y,z
1/2+y,1/2+x,z
-y,x,-z
1/2+x,1/2-y,-z
loop_
_atom_site_label
_atom_site_fract_x
_atom_site_fract_y
_atom_site_fract_z
_atom_site_U_iso_or_equiv
Co 0.00000 0.00000 0.00000 0.01482
Ca 0.33117 0.16883 0.50580 0.02660
Si 0.13910 0.36090 0.93780 0.01343
O1 0.00000 0.50000 0.82400 0.04053
O2 0.14030 0.35970 0.25530 0.02900
O3 0.07990 0.18950 0.78610 0.03546
loop_
_cod_related_entry_id
_cod_related_entry_database
_cod_related_entry_code
1 AMCSD 0008509
