#------------------------------------------------------------------------------
#$Date: 2023-03-26 11:09:57 +0300 (Sun, 26 Mar 2023) $
#$Revision: 282068 $
#$URL: file:///home/coder/svn-repositories/cod/cif/9/00/64/9006453.cif $
#------------------------------------------------------------------------------
#
# This file is available in the Crystallography Open Database (COD),
# http://www.crystallography.net/. The original data for this entry
# were provided the American Mineralogist Crystal Structure Database,
# http://rruff.geo.arizona.edu/AMS/amcsd.php
#
# The file may be used within the scientific community so long as
# proper attribution is given to the journal article from which the
# data were obtained.
#
data_9006453
loop_
_publ_author_name
'Yang, H.'
'Hazen, R. M.'
'Downs, R. T.'
'Finger, L. W.'
_publ_section_title
;
 Structural change associated with the incommensurate-normal phase transition
 in akermanite, Ca2MgSi2O7, at high pressure
 Sample: P = 2.78 GPa
 Note: O2-z changed to match reported bond lengths
;
_journal_name_full               'Physics and Chemistry of Minerals'
_journal_page_first              510
_journal_page_last               519
_journal_paper_doi               10.1007/s002690050066
_journal_volume                  24
_journal_year                    1997
_chemical_formula_sum            'Ca2 Mg O7 Si2'
_chemical_name_mineral           Akermanite
_space_group_IT_number           113
_symmetry_space_group_name_Hall  'P -4 2ab'
_symmetry_space_group_name_H-M   'P -4 21 m'
_cell_angle_alpha                90
_cell_angle_beta                 90
_cell_angle_gamma                90
_cell_length_a                   7.7677
_cell_length_b                   7.7677
_cell_length_c                   4.9495
_cell_volume                     298.639
_database_code_amcsd             0008035
_diffrn_ambient_pressure         2.78e+06
_exptl_crystal_density_diffrn    3.032
_cod_original_formula_sum        'Ca2 Mg Si2 O7'
_cod_database_code               9006453
loop_
_space_group_symop_operation_xyz
x,y,z
1/2-y,1/2-x,z
y,-x,-z
1/2-x,1/2+y,-z
-x,-y,z
1/2+y,1/2+x,z
-y,x,-z
1/2+x,1/2-y,-z
loop_
_atom_site_aniso_label
_atom_site_aniso_U_11
_atom_site_aniso_U_22
_atom_site_aniso_U_33
_atom_site_aniso_U_12
_atom_site_aniso_U_13
_atom_site_aniso_U_23
Ca 0.01467 0.01467 0.01402 0.00520 0.00136 0.00136
Mg 0.00611 0.00611 0.01824 0.00000 0.00000 0.00000
Si 0.00886 0.00886 0.00757 0.00092 -0.00019 -0.00019
O1 0.02354 0.02354 0.00621 -0.01406 0.00000 0.00000
O2 0.01773 0.01773 0.02085 0.00153 -0.00448 -0.00448
O3 0.02140 0.01070 0.01576 -0.00245 0.00526 -0.00370
loop_
_atom_site_label
_atom_site_fract_x
_atom_site_fract_y
_atom_site_fract_z
_atom_site_U_iso_or_equiv
Ca 0.33360 0.16640 0.50500 0.01456
Mg 0.00000 0.00000 0.00000 0.01026
Si 0.14050 0.35950 0.93480 0.00836
O1 0.50000 0.00000 0.18370 0.01773
O2 0.13990 0.36010 0.25840 0.01900
O3 0.08200 0.18480 0.77990 0.01646
loop_
_cod_related_entry_id
_cod_related_entry_database
_cod_related_entry_code
1 AMCSD 0008035
