#------------------------------------------------------------------------------
#$Date: 2023-03-26 11:09:57 +0300 (Sun, 26 Mar 2023) $
#$Revision: 282068 $
#$URL: file:///home/coder/svn-repositories/cod/cif/9/00/66/9006655.cif $
#------------------------------------------------------------------------------
#
# This file is available in the Crystallography Open Database (COD),
# http://www.crystallography.net/. The original data for this entry
# were provided the American Mineralogist Crystal Structure Database,
# http://rruff.geo.arizona.edu/AMS/amcsd.php
#
# The file may be used within the scientific community so long as
# proper attribution is given to the journal article from which the
# data were obtained.
#
data_9006655
loop_
_publ_author_name
'Zhang, M.'
'Meyer, H. W.'
'Groat, L. A.'
'Bismayer, U.'
'Salje, E. K. H.'
'Adiwidjaja, G.'
_publ_section_title
;
 An infrared spectroscopic and single-crystal X-ray study
 of malayaite, CaSnSiO5
 Sample: T = 730 K
 Note: x-coordinate of O1 altered from the value reported
;
_journal_name_full               'Physics and Chemistry of Minerals'
_journal_page_first              546
_journal_page_last               553
_journal_paper_doi               10.1007/s002690050218
_journal_volume                  26
_journal_year                    1999
_chemical_formula_sum            'Ca O5 Si Sn'
_chemical_name_mineral           Malayaite
_space_group_IT_number           15
_symmetry_space_group_name_Hall  '-A 2ya'
_symmetry_space_group_name_H-M   'A 1 2/a 1'
_cell_angle_alpha                90
_cell_angle_beta                 113.36
_cell_angle_gamma                90
_cell_length_a                   7.167
_cell_length_b                   8.912
_cell_length_c                   6.688
_cell_volume                     392.163
_database_code_amcsd             0008237
_diffrn_ambient_temperature      730
_exptl_crystal_density_diffrn    4.520
_cod_original_formula_sum        'Ca Sn Si O5'
_cod_database_code               9006655
loop_
_space_group_symop_operation_xyz
x,y,z
x,1/2+y,1/2+z
1/2+x,-y,z
1/2+x,1/2-y,1/2+z
1/2-x,y,-z
1/2-x,1/2+y,1/2-z
-x,-y,-z
-x,1/2-y,1/2-z
loop_
_atom_site_aniso_label
_atom_site_aniso_U_11
_atom_site_aniso_U_22
_atom_site_aniso_U_33
_atom_site_aniso_U_12
_atom_site_aniso_U_13
_atom_site_aniso_U_23
Ca 0.06006 0.01158 0.01647 0.00000 -0.00181 0.00000
Sn 0.00833 0.01017 0.00995 -0.00048 0.00355 0.00011
Si 0.01066 0.00986 0.00875 0.00000 0.00331 0.00000
O1 0.01140 0.01267 0.02968 0.00000 0.01129 0.00000
O2 0.02003 0.01796 0.01284 0.00596 0.00422 0.00254
O3 0.01954 0.01373 0.01686 0.00544 0.01018 0.00187
loop_
_atom_site_label
_atom_site_fract_x
_atom_site_fract_y
_atom_site_fract_z
_atom_site_U_iso_or_equiv
Ca 0.25000 0.66310 0.50000 0.03470
Sn 0.50000 0.50000 0.00000 0.00950
Si 0.75000 0.68160 0.50000 0.00990
O1 0.75000 0.58640 0.00000 0.01690
O2 0.91210 0.56830 0.67520 0.01770
O3 0.37220 0.71220 0.89150 0.01580
loop_
_cod_related_entry_id
_cod_related_entry_database
_cod_related_entry_code
1 AMCSD 0008237
