#------------------------------------------------------------------------------
#$Date: 2023-03-26 11:09:57 +0300 (Sun, 26 Mar 2023) $
#$Revision: 282068 $
#$URL: file:///home/coder/svn-repositories/cod/cif/9/00/64/9006451.cif $
#------------------------------------------------------------------------------
#
# This file is available in the Crystallography Open Database (COD),
# http://www.crystallography.net/. The original data for this entry
# were provided the American Mineralogist Crystal Structure Database,
# http://rruff.geo.arizona.edu/AMS/amcsd.php
#
# The file may be used within the scientific community so long as
# proper attribution is given to the journal article from which the
# data were obtained.
#
data_9006451
loop_
_publ_author_name
'Yang, H.'
'Hazen, R. M.'
'Downs, R. T.'
'Finger, L. W.'
_publ_section_title
;
 Structural change associated with the incommensurate-normal phase transition
 in akermanite, Ca2MgSi2O7, at high pressure
 Sample: P = 1.37 GPa
;
_journal_name_full               'Physics and Chemistry of Minerals'
_journal_page_first              510
_journal_page_last               519
_journal_paper_doi               10.1007/s002690050066
_journal_volume                  24
_journal_year                    1997
_chemical_formula_sum            'Ca2 Mg O7 Si2'
_chemical_name_mineral           Akermanite
_space_group_IT_number           113
_symmetry_space_group_name_Hall  'P -4 2ab'
_symmetry_space_group_name_H-M   'P -4 21 m'
_cell_angle_alpha                90
_cell_angle_beta                 90
_cell_angle_gamma                90
_cell_length_a                   7.8046
_cell_length_b                   7.8046
_cell_length_c                   4.9772
_cell_volume                     303.170
_database_code_amcsd             0008033
_diffrn_ambient_pressure         1.37e+06
_exptl_crystal_density_diffrn    2.987
_cod_original_formula_sum        'Ca2 Mg Si2 O7'
_cod_database_code               9006451
loop_
_space_group_symop_operation_xyz
x,y,z
1/2-y,1/2-x,z
y,-x,-z
1/2-x,1/2+y,-z
-x,-y,z
1/2+y,1/2+x,z
-y,x,-z
1/2+x,1/2-y,-z
loop_
_atom_site_aniso_label
_atom_site_aniso_U_11
_atom_site_aniso_U_22
_atom_site_aniso_U_33
_atom_site_aniso_U_12
_atom_site_aniso_U_13
_atom_site_aniso_U_23
Ca 0.01728 0.01728 0.01719 0.00741 0.00098 0.00098
Mg 0.00833 0.00833 0.02071 0.00000 0.00000 0.00000
Si 0.01049 0.01049 0.00778 0.00185 0.00059 0.00059
O1 0.01913 0.01913 0.01958 -0.01512 0.00000 0.00000
O2 0.02129 0.02129 0.02309 0.00617 -0.00236 -0.00236
O3 0.02870 0.00771 0.01707 -0.00185 0.00590 -0.00079
loop_
_atom_site_label
_atom_site_fract_x
_atom_site_fract_y
_atom_site_fract_z
_atom_site_U_iso_or_equiv
Ca 0.33290 0.16710 0.50560 0.01735
Mg 0.00000 0.00000 0.00000 0.01241
Si 0.14030 0.35970 0.93430 0.00950
O1 0.50000 0.00000 0.18390 0.01900
O2 0.14040 0.35960 0.25510 0.02153
O3 0.08130 0.18520 0.78340 0.02280
loop_
_cod_related_entry_id
_cod_related_entry_database
_cod_related_entry_code
1 AMCSD 0008033
