#------------------------------------------------------------------------------
#$Date: 2023-03-26 11:09:57 +0300 (Sun, 26 Mar 2023) $
#$Revision: 282068 $
#$URL: file:///home/coder/svn-repositories/cod/cif/9/00/69/9006946.cif $
#------------------------------------------------------------------------------
#
# This file is available in the Crystallography Open Database (COD),
# http://www.crystallography.net/. The original data for this entry
# were provided the American Mineralogist Crystal Structure Database,
# http://rruff.geo.arizona.edu/AMS/amcsd.php
#
# The file may be used within the scientific community so long as
# proper attribution is given to the journal article from which the
# data were obtained.
#
data_9006946
loop_
_publ_author_name
'Kusaka, K.'
'Hagiya, K.'
'Ohmasa, M.'
'Okano, Y.'
'Mukai, M.'
'Iishi, K.'
'Haga, N.'
_publ_section_title
;Determination of structures of Ca2CoSi2O7, Ca2MgSi2O7, and
 Ca2(Mg.55Fe.45)Si2O7 in incommensurate and normal phases and observation of
 diffuse streaks at high temperature Sample: T = 523 K Melilite group
;
_journal_name_full               'Physics and Chemistry of Minerals'
_journal_page_first              150
_journal_page_last               166
_journal_paper_doi               10.1007/s002690000147
_journal_volume                  28
_journal_year                    2001
_chemical_formula_structural     Ca2(Mg.55Fe.45)Si2O7
_chemical_formula_sum            'Ca2 Fe0.45 Mg0.55 O7 Si2'
_space_group_IT_number           113
_symmetry_space_group_name_Hall  'P -4 2ab'
_symmetry_space_group_name_H-M   'P -4 21 m'
_cell_angle_alpha                90
_cell_angle_beta                 90
_cell_angle_gamma                90
_cell_length_a                   7.8855
_cell_length_b                   7.8855
_cell_length_c                   5.0170
_cell_volume                     311.963
_database_code_amcsd             0008528
_diffrn_ambient_temperature      523
_exptl_crystal_density_diffrn    3.053
_cod_original_formula_sum        '(Mg.55 Fe.45) Ca2 Si2 O7'
_cod_database_code               9006946
_amcsd_formula_title             Ca2(Mg.55Fe.45)Si2O7
loop_
_space_group_symop_operation_xyz
x,y,z
1/2-y,1/2-x,z
y,-x,-z
1/2-x,1/2+y,-z
-x,-y,z
1/2+y,1/2+x,z
-y,x,-z
1/2+x,1/2-y,-z
loop_
_atom_site_label
_atom_site_fract_x
_atom_site_fract_y
_atom_site_fract_z
_atom_site_occupancy
_atom_site_U_iso_or_equiv
Mg 0.00000 0.00000 0.00000 0.55000 0.01672
Fe 0.00000 0.00000 0.00000 0.45000 0.01672
Ca 0.33119 0.16881 0.50590 1.00000 0.02584
Si 0.13870 0.36130 0.93690 1.00000 0.01355
O1 0.00000 0.50000 0.82400 1.00000 0.03800
O2 0.13950 0.36050 0.25570 1.00000 0.03280
O3 0.08050 0.18910 0.78860 1.00000 0.03546
loop_
_cod_related_entry_id
_cod_related_entry_database
_cod_related_entry_code
1 AMCSD 0008528
