#------------------------------------------------------------------------------
#$Date: 2023-03-26 11:09:57 +0300 (Sun, 26 Mar 2023) $
#$Revision: 282068 $
#$URL: file:///home/coder/svn-repositories/cod/cif/9/00/68/9006889.cif $
#------------------------------------------------------------------------------
#
# This file is available in the Crystallography Open Database (COD),
# http://www.crystallography.net/. The original data for this entry
# were provided the American Mineralogist Crystal Structure Database,
# http://rruff.geo.arizona.edu/AMS/amcsd.php
#
# The file may be used within the scientific community so long as
# proper attribution is given to the journal article from which the
# data were obtained.
#
data_9006889
loop_
_publ_author_name
'Redfern, S. A. T.'
'Artioli, G.'
'Rinaldi, R.'
'Henderson, C. M. B.'
'Knight, K. S.'
'Wood, B. J.'
_publ_section_title
;
 Octahedral cation ordering in olivine at high temperature. II: an in situ
 neutron powder diffraction study on synthetic MgFeSiO4 (Fa50)
 Sample: T = 1150 C
;
_journal_name_full               'Physics and Chemistry of Minerals'
_journal_page_first              630
_journal_page_last               637
_journal_paper_doi               10.1007/s002690000109
_journal_volume                  27
_journal_year                    2000
_chemical_formula_sum            'Fe Mg O4 Si'
_chemical_name_mineral           Olivine
_space_group_IT_number           62
_symmetry_space_group_name_Hall  '-P 2c 2ab'
_symmetry_space_group_name_H-M   'P b n m'
_cell_angle_alpha                90
_cell_angle_beta                 90
_cell_angle_gamma                90
_cell_length_a                   4.8472
_cell_length_b                   10.4955
_cell_length_c                   6.1368
_cell_volume                     312.202
_database_code_amcsd             0008471
_diffrn_ambient_temperature      1423.15
_exptl_crystal_density_diffrn    3.664
_cod_original_formula_sum        '(Fe Mg) Si O4'
_cod_database_code               9006889
loop_
_space_group_symop_operation_xyz
x,y,z
x,y,1/2-z
-x,-y,1/2+z
1/2+x,1/2-y,1/2+z
1/2-x,1/2+y,1/2-z
1/2-x,1/2+y,z
1/2+x,1/2-y,-z
-x,-y,-z
loop_
_atom_site_label
_atom_site_fract_x
_atom_site_fract_y
_atom_site_fract_z
_atom_site_occupancy
_atom_site_U_iso_or_equiv
FeM1 0.00000 0.00000 0.00000 0.43600 0.01960
MgM1 0.00000 0.00000 0.00000 0.56400 0.01960
FeM2 0.97940 0.28190 0.25000 0.56400 0.03010
MgM2 0.97940 0.28190 0.25000 0.43600 0.03010
Si 0.42030 0.09590 0.25000 1.00000 0.01800
O1 0.76760 0.09540 0.25000 1.00000 0.02420
O2 0.22140 0.45400 0.25000 1.00000 0.02830
O3 0.28610 0.16520 0.03920 1.00000 0.02380
loop_
_cod_related_entry_id
_cod_related_entry_database
_cod_related_entry_code
1 AMCSD 0008471
