#------------------------------------------------------------------------------
#$Date: 2023-03-26 11:09:57 +0300 (Sun, 26 Mar 2023) $
#$Revision: 282068 $
#$URL: file:///home/coder/svn-repositories/cod/cif/9/00/61/9006168.cif $
#------------------------------------------------------------------------------
#
# This file is available in the Crystallography Open Database (COD),
# http://www.crystallography.net/. The original data for this entry
# were provided the American Mineralogist Crystal Structure Database,
# http://rruff.geo.arizona.edu/AMS/amcsd.php
#
# The file may be used within the scientific community so long as
# proper attribution is given to the journal article from which the
# data were obtained.
#
data_9006168
loop_
_publ_author_name
'Yang, H.'
'Ghose, S.'
'Hatch, D. M.'
_publ_section_title
;
 Ferroelastic phase transition in cryolite, Na3AlF6, a mixed
 fluoride perovskite: high temperature single crystal X-ray
 diffraction study and symmetry analysis of the transition mechanism
 Sample: T = 900 K
;
_journal_name_full               'Physics and Chemistry of Minerals'
_journal_page_first              528
_journal_page_last               544
_journal_volume                  19
_journal_year                    1993
_chemical_formula_sum            'Al F6 Na3'
_chemical_name_mineral           Cryolite
_space_group_IT_number           71
_symmetry_space_group_name_Hall  '-I 2 2'
_symmetry_space_group_name_H-M   'I m m m'
_cell_angle_alpha                90
_cell_angle_beta                 90
_cell_angle_gamma                90
_cell_length_a                   5.6333
_cell_length_b                   5.6273
_cell_length_c                   7.9619
_cell_volume                     252.394
_database_code_amcsd             0007750
_diffrn_ambient_temperature      900
_exptl_crystal_density_diffrn    2.762
_cod_original_formula_sum        'Al Na3 F6'
_cod_database_code               9006168
loop_
_space_group_symop_operation_xyz
x,y,z
1/2+x,1/2+y,1/2+z
x,-y,z
1/2+x,1/2-y,1/2+z
-x,y,-z
1/2-x,1/2+y,1/2-z
-x,y,z
1/2-x,1/2+y,1/2+z
x,-y,-z
1/2+x,1/2-y,1/2-z
x,y,-z
1/2+x,1/2+y,1/2-z
-x,-y,z
1/2-x,1/2-y,1/2+z
-x,-y,-z
1/2-x,1/2-y,1/2-z
loop_
_atom_site_aniso_label
_atom_site_aniso_U_11
_atom_site_aniso_U_22
_atom_site_aniso_U_33
_atom_site_aniso_U_12
_atom_site_aniso_U_13
_atom_site_aniso_U_23
Al 0.06014 0.04596 0.10579 0.00000 0.00000 0.00000
Na1 0.18625 0.08711 0.14513 0.00000 0.00000 0.00000
Na2 0.19453 0.11807 0.27763 0.00000 0.00000 0.00000
F1 0.57796 0.26160 0.08298 0.00000 0.00000 0.00000
F2 0.27425 0.18534 0.66131 -0.12816 0.00000 0.00000
loop_
_atom_site_label
_atom_site_fract_x
_atom_site_fract_y
_atom_site_fract_z
Al 0.00000 0.00000 0.00000
Na1 0.00000 0.00000 0.50000
Na2 0.00000 0.50000 0.25010
F1 0.00000 0.00000 0.21860
F2 0.23350 0.21600 0.00000
loop_
_cod_related_entry_id
_cod_related_entry_database
_cod_related_entry_code
1 AMCSD 0007750
