#------------------------------------------------------------------------------
#$Date: 2023-03-26 11:09:57 +0300 (Sun, 26 Mar 2023) $
#$Revision: 282068 $
#$URL: file:///home/coder/svn-repositories/cod/cif/9/00/64/9006425.cif $
#------------------------------------------------------------------------------
#
# This file is available in the Crystallography Open Database (COD),
# http://www.crystallography.net/. The original data for this entry
# were provided the American Mineralogist Crystal Structure Database,
# http://rruff.geo.arizona.edu/AMS/amcsd.php
#
# The file may be used within the scientific community so long as
# proper attribution is given to the journal article from which the
# data were obtained.
#
data_9006425
loop_
_publ_author_name
'Hugh-Jones D A'
'Chopelas, A.'
'Angel, R. J.'
_publ_section_title
;
 Tetrahedral compression in (Mg,Fe)SiO3 orthopyroxenes
 Sample: P = 2.84 GPa
;
_journal_name_full               'Physics and Chemistry of Minerals'
_journal_page_first              301
_journal_page_last               310
_journal_paper_doi               10.1007/s002690050042
_journal_volume                  24
_journal_year                    1997
_chemical_formula_sum            'Fe O3 Si'
_chemical_name_mineral           Ferrosilite
_space_group_IT_number           61
_symmetry_space_group_name_Hall  '-P 2ac 2ab'
_symmetry_space_group_name_H-M   'P b c a'
_cell_angle_alpha                90
_cell_angle_beta                 90
_cell_angle_gamma                90
_cell_length_a                   18.341
_cell_length_b                   8.966
_cell_length_c                   5.1925
_cell_volume                     853.883
_database_code_amcsd             0008007
_diffrn_ambient_pressure         2.84e+06
_exptl_crystal_density_diffrn    4.105
_cod_original_formula_sum        'Fe Si O3'
_cod_database_code               9006425
loop_
_space_group_symop_operation_xyz
x,y,z
x,1/2-y,1/2+z
-x,1/2+y,1/2-z
1/2-x,1/2+y,z
1/2+x,1/2-y,-z
1/2+x,y,1/2-z
1/2-x,-y,1/2+z
-x,-y,-z
loop_
_atom_site_label
_atom_site_fract_x
_atom_site_fract_y
_atom_site_fract_z
_atom_site_U_iso_or_equiv
FeM1 0.37570 0.65590 0.86600 0.00393
FeM2 0.37840 0.48200 0.35790 0.00443
SiTA 0.27170 0.34100 0.04050 0.00253
SiTB 0.47270 0.33390 0.79290 0.00304
O1a 0.18480 0.34200 0.02900 0.00228
O2a 0.31070 0.50100 0.04900 0.00532
O3a 0.30220 0.23400 0.80700 0.00114
O1b 0.55880 0.33500 0.78800 0.00215
O2b 0.43340 0.48300 0.68600 0.00025
O3b 0.44660 0.19700 0.59400 0.00101
loop_
_cod_related_entry_id
_cod_related_entry_database
_cod_related_entry_code
1 AMCSD 0008007
