#------------------------------------------------------------------------------
#$Date: 2023-03-26 11:09:57 +0300 (Sun, 26 Mar 2023) $
#$Revision: 282068 $
#$URL: file:///home/coder/svn-repositories/cod/cif/9/00/69/9006948.cif $
#------------------------------------------------------------------------------
#
# This file is available in the Crystallography Open Database (COD),
# http://www.crystallography.net/. The original data for this entry
# were provided the American Mineralogist Crystal Structure Database,
# http://rruff.geo.arizona.edu/AMS/amcsd.php
#
# The file may be used within the scientific community so long as
# proper attribution is given to the journal article from which the
# data were obtained.
#
data_9006948
loop_
_publ_author_name
'Kusaka, K.'
'Hagiya, K.'
'Ohmasa, M.'
'Okano, Y.'
'Mukai, M.'
'Iishi, K.'
'Haga, N.'
_publ_section_title
;Determination of structures of Ca2CoSi2O7, Ca2MgSi2O7, and
 Ca2(Mg.55Fe.45)Si2O7 in incommensurate and normal phases and observation of
 diffuse streaks at high temperature Sample: T = 573 K Melilite group
;
_journal_name_full               'Physics and Chemistry of Minerals'
_journal_page_first              150
_journal_page_last               166
_journal_paper_doi               10.1007/s002690000147
_journal_volume                  28
_journal_year                    2001
_chemical_formula_structural     Ca2(Mg.55Fe.45)Si2O7
_chemical_formula_sum            'Ca2 Fe0.45 Mg0.55 O7 Si2'
_space_group_IT_number           113
_symmetry_space_group_name_Hall  'P -4 2ab'
_symmetry_space_group_name_H-M   'P -4 21 m'
_cell_angle_alpha                90
_cell_angle_beta                 90
_cell_angle_gamma                90
_cell_length_a                   7.8875
_cell_length_b                   7.8875
_cell_length_c                   5.0191
_cell_volume                     312.252
_database_code_amcsd             0008530
_diffrn_ambient_temperature      573
_exptl_crystal_density_diffrn    3.051
_cod_original_formula_sum        '(Mg.55 Fe.45) Ca2 Si2 O7'
_cod_database_code               9006948
_amcsd_formula_title             Ca2(Mg.55Fe.45)Si2O7
loop_
_space_group_symop_operation_xyz
x,y,z
1/2-y,1/2-x,z
y,-x,-z
1/2-x,1/2+y,-z
-x,-y,z
1/2+y,1/2+x,z
-y,x,-z
1/2+x,1/2-y,-z
loop_
_atom_site_label
_atom_site_fract_x
_atom_site_fract_y
_atom_site_fract_z
_atom_site_occupancy
_atom_site_U_iso_or_equiv
Mg 0.00000 0.00000 0.00000 0.55000 0.01938
Fe 0.00000 0.00000 0.00000 0.45000 0.01938
Ca 0.33122 0.16878 0.50580 1.00000 0.02761
Si 0.13860 0.36140 0.93720 1.00000 0.01532
O1 0.00000 0.50000 0.82500 1.00000 0.03673
O2 0.13950 0.36050 0.25590 1.00000 0.03534
O3 0.08070 0.18900 0.78880 1.00000 0.03673
loop_
_cod_related_entry_id
_cod_related_entry_database
_cod_related_entry_code
1 AMCSD 0008530
