#------------------------------------------------------------------------------
#$Date: 2023-03-26 11:09:57 +0300 (Sun, 26 Mar 2023) $
#$Revision: 282068 $
#$URL: file:///home/coder/svn-repositories/cod/cif/9/00/68/9006840.cif $
#------------------------------------------------------------------------------
#
# This file is available in the Crystallography Open Database (COD),
# http://www.crystallography.net/. The original data for this entry
# were provided the American Mineralogist Crystal Structure Database,
# http://rruff.geo.arizona.edu/AMS/amcsd.php
#
# The file may be used within the scientific community so long as
# proper attribution is given to the journal article from which the
# data were obtained.
#
data_9006840
loop_
_publ_author_name
'Holl, C. M.'
'Smyth, J. R.'
'Laustsen, H. M. S.'
'Jacobsen, S. D.'
'Downs, R. T.'
_publ_section_title
;
 Compression of witherite to 8 GPa and the crystal structure of BaCO3 II
 Sample: P = 1.98 GPa
;
_journal_name_full               'Physics and Chemistry of Minerals'
_journal_page_first              467
_journal_page_last               473
_journal_paper_doi               10.1007/s002690000087
_journal_volume                  27
_journal_year                    2000
_chemical_formula_sum            'C Ba O3'
_chemical_name_mineral           Witherite
_space_group_IT_number           62
_symmetry_space_group_name_Hall  '-P 2n 2a'
_symmetry_space_group_name_H-M   'P m c n'
_cell_angle_alpha                90
_cell_angle_beta                 90
_cell_angle_gamma                90
_cell_length_a                   5.292
_cell_length_b                   8.856
_cell_length_c                   6.246
_cell_volume                     292.725
_database_code_amcsd             0008422
_diffrn_ambient_pressure         1.98e+06
_exptl_crystal_density_diffrn    4.478
_cod_original_formula_sum        'Ba C O3'
_cod_database_code               9006840
loop_
_space_group_symop_operation_xyz
x,y,z
1/2-x,y,z
1/2+x,-y,-z
1/2+x,1/2+y,1/2-z
1/2-x,1/2-y,1/2+z
x,1/2-y,1/2+z
-x,1/2+y,1/2-z
-x,-y,-z
loop_
_atom_site_label
_atom_site_fract_x
_atom_site_fract_y
_atom_site_fract_z
_atom_site_U_iso_or_equiv
Ba 0.25000 0.41590 0.75530 0.01500
C 0.25000 0.75700 0.91600 0.04800
O1 0.25000 0.89900 0.89400 0.02100
O2 0.46000 0.68000 0.91800 0.02200
loop_
_cod_related_entry_id
_cod_related_entry_database
_cod_related_entry_code
1 AMCSD 0008422
