#------------------------------------------------------------------------------
#$Date: 2023-03-26 11:09:57 +0300 (Sun, 26 Mar 2023) $
#$Revision: 282068 $
#$URL: file:///home/coder/svn-repositories/cod/cif/9/00/64/9006426.cif $
#------------------------------------------------------------------------------
#
# This file is available in the Crystallography Open Database (COD),
# http://www.crystallography.net/. The original data for this entry
# were provided the American Mineralogist Crystal Structure Database,
# http://rruff.geo.arizona.edu/AMS/amcsd.php
#
# The file may be used within the scientific community so long as
# proper attribution is given to the journal article from which the
# data were obtained.
#
data_9006426
loop_
_publ_author_name
'Hugh-Jones D A'
'Chopelas, A.'
'Angel, R. J.'
_publ_section_title
;
 Tetrahedral compression in (Mg,Fe)SiO3 orthopyroxenes
 Sample: P = 3.65 GPa
;
_journal_name_full               'Physics and Chemistry of Minerals'
_journal_page_first              301
_journal_page_last               310
_journal_paper_doi               10.1007/s002690050042
_journal_volume                  24
_journal_year                    1997
_chemical_formula_sum            'Fe O3 Si'
_chemical_name_mineral           Ferrosilite
_space_group_IT_number           61
_symmetry_space_group_name_Hall  '-P 2ac 2ab'
_symmetry_space_group_name_H-M   'P b c a'
_cell_angle_alpha                90
_cell_angle_beta                 90
_cell_angle_gamma                90
_cell_length_a                   18.311
_cell_length_b                   8.939
_cell_length_c                   5.181
_cell_volume                     848.037
_database_code_amcsd             0008008
_diffrn_ambient_pressure         3.65e+06
_exptl_crystal_density_diffrn    4.133
_cod_original_formula_sum        'Fe Si O3'
_cod_database_code               9006426
loop_
_space_group_symop_operation_xyz
x,y,z
x,1/2-y,1/2+z
-x,1/2+y,1/2-z
1/2-x,1/2+y,z
1/2+x,1/2-y,-z
1/2+x,y,1/2-z
1/2-x,-y,1/2+z
-x,-y,-z
loop_
_atom_site_label
_atom_site_fract_x
_atom_site_fract_y
_atom_site_fract_z
_atom_site_U_iso_or_equiv
FeM1 0.37590 0.65630 0.86440 0.00557
FeM2 0.37870 0.48120 0.35570 0.00583
SiTA 0.27150 0.34180 0.03700 0.00355
SiTB 0.47260 0.33430 0.79430 0.00405
O1a 0.18390 0.34100 0.02900 0.00773
O2a 0.30980 0.50200 0.04600 0.00671
O3a 0.30250 0.23800 0.80400 0.00215
O1b 0.56050 0.33700 0.79200 0.00849
O2b 0.43290 0.48400 0.68600 0.00190
O3b 0.44670 0.19700 0.59900 0.00380
loop_
_cod_related_entry_id
_cod_related_entry_database
_cod_related_entry_code
1 AMCSD 0008008
