#------------------------------------------------------------------------------
#$Date: 2023-03-26 11:09:57 +0300 (Sun, 26 Mar 2023) $
#$Revision: 282068 $
#$URL: file:///home/coder/svn-repositories/cod/cif/9/00/63/9006333.cif $
#------------------------------------------------------------------------------
#
# This file is available in the Crystallography Open Database (COD),
# http://www.crystallography.net/. The original data for this entry
# were provided the American Mineralogist Crystal Structure Database,
# http://rruff.geo.arizona.edu/AMS/amcsd.php
#
# The file may be used within the scientific community so long as
# proper attribution is given to the journal article from which the
# data were obtained.
#
data_9006333
loop_
_publ_author_name
'Catti, M.'
'Ferraris, G.'
'Hull, S.'
'Pavese, A.'
_publ_section_title
;
 Static compression and H disorder in brucite, Mg(OH)2, to 11 GPa:
 a powder neutron diffraction study
 Sample: at P = 10.9 GPa, split H site
;
_journal_name_full               'Physics and Chemistry of Minerals'
_journal_page_first              200
_journal_page_last               206
_journal_volume                  22
_journal_year                    1995
_chemical_formula_sum            'H2 Mg O2'
_chemical_name_mineral           Brucite
_space_group_IT_number           164
_symmetry_space_group_name_Hall  '-P 3 2"'
_symmetry_space_group_name_H-M   'P -3 m 1'
_cell_angle_alpha                90
_cell_angle_beta                 90
_cell_angle_gamma                120
_cell_length_a                   3.0464
_cell_length_b                   3.0464
_cell_length_c                   4.3553
_cell_volume                     35.004
_database_code_amcsd             0007915
_diffrn_ambient_pressure         1.09e+07
_exptl_crystal_density_diffrn    2.767
_cod_original_formula_sum        'Mg O2 H2'
_cod_database_code               9006333
loop_
_space_group_symop_operation_xyz
x,y,z
-y,-x,z
y,-x+y,-z
-x,-x+y,-z
-x+y,-x,z
-x+y,y,z
-x,-y,-z
y,x,-z
-y,x-y,z
x,x-y,z
x-y,x,-z
x-y,-y,-z
loop_
_atom_site_label
_atom_site_fract_x
_atom_site_fract_y
_atom_site_fract_z
_atom_site_occupancy
_atom_site_U_iso_or_equiv
Mg 0.00000 0.00000 0.00000 1.00000 0.00013
O 0.33333 0.66667 0.24730 1.00000 0.00228
H 0.33710 0.67420 0.44740 0.33333 0.00887
loop_
_cod_related_entry_id
_cod_related_entry_database
_cod_related_entry_code
1 AMCSD 0007915
