#------------------------------------------------------------------------------
#$Date: 2023-03-26 11:09:57 +0300 (Sun, 26 Mar 2023) $
#$Revision: 282068 $
#$URL: file:///home/coder/svn-repositories/cod/cif/9/00/69/9006928.cif $
#------------------------------------------------------------------------------
#
# This file is available in the Crystallography Open Database (COD),
# http://www.crystallography.net/. The original data for this entry
# were provided the American Mineralogist Crystal Structure Database,
# http://rruff.geo.arizona.edu/AMS/amcsd.php
#
# The file may be used within the scientific community so long as
# proper attribution is given to the journal article from which the
# data were obtained.
#
data_9006928
loop_
_publ_author_name
'Kusaka, K.'
'Hagiya, K.'
'Ohmasa, M.'
'Okano, Y.'
'Mukai, M.'
'Iishi, K.'
'Haga, N.'
_publ_section_title
;Determination of structures of Ca2CoSi2O7, Ca2MgSi2O7, and
 Ca2(Mg.55Fe.45)Si2O7 in incommensurate and normal phases and observation of
 diffuse streaks at high temperature Sample: T = 468 K Melilite group
;
_journal_name_full               'Physics and Chemistry of Minerals'
_journal_page_first              150
_journal_page_last               166
_journal_paper_doi               10.1007/s002690000147
_journal_volume                  28
_journal_year                    2001
_chemical_formula_structural     Ca2CoSi2O7
_chemical_formula_sum            'Ca2 Co O7 Si2'
_space_group_IT_number           113
_symmetry_space_group_name_Hall  'P -4 2ab'
_symmetry_space_group_name_H-M   'P -4 21 m'
_cell_angle_alpha                90
_cell_angle_beta                 90
_cell_angle_gamma                90
_cell_length_a                   7.8563
_cell_length_b                   7.8563
_cell_length_c                   5.0294
_cell_volume                     310.422
_database_code_amcsd             0008510
_diffrn_ambient_temperature      468
_exptl_crystal_density_diffrn    3.287
_cod_original_formula_sum        'Co Ca2 Si2 O7'
_cod_database_code               9006928
_amcsd_formula_title             Ca2CoSi2O7
loop_
_space_group_symop_operation_xyz
x,y,z
1/2-y,1/2-x,z
y,-x,-z
1/2-x,1/2+y,-z
-x,-y,z
1/2+y,1/2+x,z
-y,x,-z
1/2+x,1/2-y,-z
loop_
_atom_site_label
_atom_site_fract_x
_atom_site_fract_y
_atom_site_fract_z
_atom_site_U_iso_or_equiv
Co 0.00000 0.00000 0.00000 0.01558
Ca 0.33140 0.16860 0.50470 0.02584
Si 0.13910 0.36090 0.93750 0.01381
O1 0.00000 0.50000 0.82100 0.04179
O2 0.14060 0.35940 0.25440 0.02862
O3 0.08050 0.18910 0.78490 0.03673
loop_
_cod_related_entry_id
_cod_related_entry_database
_cod_related_entry_code
1 AMCSD 0008510
