#------------------------------------------------------------------------------
#$Date: 2023-11-12 12:37:04 +0200 (Sun, 12 Nov 2023) $
#$Revision: 287555 $
#$URL: file:///home/coder/svn-repositories/cod/cif/9/00/72/9007287.cif $
#------------------------------------------------------------------------------
#
# This file is available in the Crystallography Open Database (COD),
# http://www.crystallography.net/. The original data for this entry
# were provided the American Mineralogist Crystal Structure Database,
# http://rruff.geo.arizona.edu/AMS/amcsd.php
#
# The file may be used within the scientific community so long as
# proper attribution is given to the journal article from which the
# data were obtained.
#
data_9007287
loop_
_publ_author_name
'Schofield, P. F.'
'Knight, K. S.'
'van der Houwen, J. A. M.'
'Valsami-Jones E'
_publ_section_title
;
 The role of hydrogen bonding in the thermal expansion and dehydration
 of brushite, di-calcium phosphate dihydrate
 Sample: T = 4.2 K
;
_journal_name_full               'Physics and Chemistry of Minerals'
_journal_page_first              606
_journal_page_last               624
_journal_paper_doi               10.1007/s00269-004-0419-6
_journal_volume                  31
_journal_year                    2004
_chemical_formula_sum            'Ca D5 O6 P'
_chemical_name_mineral           'Brushite (deuterated)'
_space_group_IT_number           9
_symmetry_space_group_name_Hall  'I -2ya'
_symmetry_space_group_name_H-M   'I 1 a 1'
_cell_angle_alpha                90
_cell_angle_beta                 116.429
_cell_angle_gamma                90
_cell_formula_units_Z            4
_cell_length_a                   5.79903
_cell_length_b                   15.1254
_cell_length_c                   6.18398
_cell_volume                     485.724
_diffrn_ambient_temperature      4.2
_exptl_crystal_density_diffrn    2.422
_cod_original_formula_sum        'Ca P O6 D5'
_cod_database_code               9007287
loop_
_symmetry_equiv_pos_as_xyz
x,y,z
1/2+x,1/2+y,1/2+z
1/2+x,-y,z
+x,1/2-y,1/2+z
loop_
_atom_site_label
_atom_site_fract_x
_atom_site_fract_y
_atom_site_fract_z
_atom_site_U_iso_or_equiv
_atom_site_type_symbol
_atom_site_attached_hydrogens
Ca 0.50000 0.32740 0.25000 0.00380 Ca 0
P -0.00940 0.32270 0.72850 0.00020 P 0
OD1 -0.00970 0.36790 -0.03510 0.00400 O 0
O2 0.25560 0.28190 0.82150 0.00250 O 0
O3 -0.06500 0.39330 0.54150 0.00340 O 0
O4 0.77910 0.25320 0.63550 0.00120 O 0
OD2O1 0.36760 0.42580 0.48610 0.00400 O 0
OD2O2 0.52570 0.44640 0.01350 0.00770 O 0
D1 -0.09790 0.33030 0.03460 0.01690 D 0
D2 0.38440 0.48940 0.49200 0.01390 D 0
D3 0.20500 0.41220 0.48620 0.01590 D 0
D4 0.51170 0.51070 0.01600 0.02220 D 0
D5 0.50070 0.43320 0.85460 0.02480 D 0
loop_
_cod_changelog_entry_id
_cod_changelog_entry_author
_cod_changelog_entry_date
_cod_changelog_entry_text
1
;cod-tools version 3.8.0
Id: cif_guess_AMCSD_atom_types 9581 2023-05-17 12:35:41Z saulius
;
2023-05-23T09:13:51+03:00
;Derived atom types and hydrogen counts
from atom names that follow the AMCSD naming convention
(Wat == water, O-H == hydroxyl).
;
_database_code_amcsd 0008880
