#------------------------------------------------------------------------------
#$Date: 2023-03-26 11:09:57 +0300 (Sun, 26 Mar 2023) $
#$Revision: 282068 $
#$URL: file:///home/coder/svn-repositories/cod/cif/9/00/73/9007337.cif $
#------------------------------------------------------------------------------
#
# This file is available in the Crystallography Open Database (COD),
# http://www.crystallography.net/. The original data for this entry
# were provided the American Mineralogist Crystal Structure Database,
# http://rruff.geo.arizona.edu/AMS/amcsd.php
#
# The file may be used within the scientific community so long as
# proper attribution is given to the journal article from which the
# data were obtained.
#
data_9007337
loop_
_publ_author_name
'Skala, R.'
'Cisarova, I.'
_publ_section_title
;Crystal structure of meteoritic schreibersites: determination of absolute
 structure Sample: Odessa cl#2
;
_journal_name_full               'Physics and Chemistry of Minerals'
_journal_page_first              721
_journal_page_last               732
_journal_paper_doi               10.1007/s00269-004-0435-6
_journal_volume                  31
_journal_year                    2005
_chemical_formula_sum            'Fe1.75 Ni1.25 P'
_chemical_name_mineral           Schreibersite
_space_group_IT_number           82
_symmetry_space_group_name_Hall  'I -4'
_symmetry_space_group_name_H-M   'I -4'
_cell_angle_alpha                90
_cell_angle_beta                 90
_cell_angle_gamma                90
_cell_length_a                   9.0375
_cell_length_b                   9.0375
_cell_length_c                   4.4601
_cell_volume                     364.285
_database_code_amcsd             0008930
_exptl_crystal_density_diffrn    7.369
_cod_original_formula_sum        '(Fe1.75 Ni1.25) P'
_cod_database_code               9007337
loop_
_space_group_symop_operation_xyz
x,y,z
1/2+x,1/2+y,1/2+z
y,-x,-z
1/2+y,1/2-x,1/2-z
-x,-y,z
1/2-x,1/2-y,1/2+z
-y,x,-z
1/2-y,1/2+x,1/2-z
loop_
_atom_site_aniso_label
_atom_site_aniso_U_11
_atom_site_aniso_U_22
_atom_site_aniso_U_33
_atom_site_aniso_U_12
_atom_site_aniso_U_13
_atom_site_aniso_U_23
Fe1 0.00920 0.00970 0.00680 0.00030 -0.00070 -0.00030
Ni1 0.00920 0.00970 0.00680 0.00030 -0.00070 -0.00030
Fe2 0.00860 0.00900 0.00620 -0.00020 0.00070 0.00000
Ni2 0.00860 0.00900 0.00620 -0.00020 0.00070 0.00000
Fe3 0.01070 0.00920 0.00680 -0.00030 0.00010 0.00070
Ni3 0.01070 0.00920 0.00680 -0.00030 0.00010 0.00070
P 0.00920 0.00980 0.00600 -0.00040 -0.00090 0.00070
loop_
_atom_site_label
_atom_site_fract_x
_atom_site_fract_y
_atom_site_fract_z
_atom_site_occupancy
_atom_site_U_iso_or_equiv
Fe1 0.07861 0.10794 0.23120 0.86000 0.00860
Ni1 0.07861 0.10794 0.23120 0.14000 0.00860
Fe2 0.36154 0.03318 0.98010 0.66000 0.00800
Ni2 0.36154 0.03318 0.98010 0.34000 0.00800
Fe3 0.16909 0.21880 0.75010 0.23000 0.00890
Ni3 0.16909 0.21880 0.75010 0.77000 0.00890
P 0.29210 0.04890 0.48400 1.00000 0.00830
loop_
_cod_related_entry_id
_cod_related_entry_database
_cod_related_entry_code
1 AMCSD 0008930
