#------------------------------------------------------------------------------
#$Date: 2023-11-11 15:25:56 +0200 (Sat, 11 Nov 2023) $
#$Revision: 287548 $
#$URL: file:///home/coder/svn-repositories/cod/cif/9/00/72/9007256.cif $
#------------------------------------------------------------------------------
#
# This file is available in the Crystallography Open Database (COD),
# http://www.crystallography.net/
#
# All data on this site have been placed in the public domain by the
# contributors.
#
data_9007256
loop_
_publ_author_name
'Tarantino S C'
'Zema M'
'Pistorino M'
'Domeneghetti M C'
_publ_section_title
;
 High-temperature X-ray investigation of natural columbites
 Note: sample KRA5 at T = 600 C
 Sample: Kragero, Norway
;
_journal_name_full               'Physics and Chemistry of Minerals'
_journal_page_first              590
_journal_page_last               598
_journal_paper_doi               10.1007/s00269-003-0345-z
_journal_volume                  30
_journal_year                    2003
_chemical_formula_sum
'Ca0.009 Fe0.138 Mn0.792 Nb1.794 O6 Sc0.002 Sn0.003 Ta0.166 Ti0.077 W0.001'
_chemical_name_mineral           Manganocolumbite
_space_group_IT_number           60
_symmetry_space_group_name_Hall  '-P 2n 2ab'
_symmetry_space_group_name_H-M   'P b c n'
_cell_angle_alpha                90
_cell_angle_beta                 90
_cell_angle_gamma                90
_cell_length_a                   14.4508
_cell_length_b                   5.7741
_cell_length_c                   5.1025
_cell_volume                     425.754
_diffrn_ambient_temperature      873.15
_cod_original_formula_sum
'Mn.792 Fe.138 Ti.077 Nb1.794 Ta.166 Ca.009 Sn.003 Sc.002 W.001 O6'
_cod_database_code               9007256
loop_
_symmetry_equiv_pos_as_xyz
x,y,z
x,-y,1/2+z
-x,y,1/2-z
1/2-x,1/2+y,z
1/2+x,1/2-y,-z
1/2+x,1/2+y,1/2-z
1/2-x,1/2-y,1/2+z
-x,-y,-z
loop_
_atom_site_aniso_label
_atom_site_aniso_U_11
_atom_site_aniso_U_22
_atom_site_aniso_U_33
_atom_site_aniso_U_12
_atom_site_aniso_U_13
_atom_site_aniso_U_23
Mn2+A 0.02100 0.02600 0.02360 0.00000 0.00110 0.00000
Fe2+A 0.02100 0.02600 0.02360 0.00000 0.00110 0.00000
Ti4+A 0.02100 0.02600 0.02360 0.00000 0.00110 0.00000
Nb5+B 0.01720 0.01800 0.01770 0.00010 -0.00080 -0.00030
Ta5+B 0.01720 0.01800 0.01770 0.00010 -0.00080 -0.00030
Ca2+B 0.01720 0.01800 0.01770 0.00010 -0.00080 -0.00030
Sn4+B 0.01720 0.01800 0.01770 0.00010 -0.00080 -0.00030
Sc3+B 0.01720 0.01800 0.01770 0.00010 -0.00080 -0.00030
W6+B 0.01720 0.01800 0.01770 0.00010 -0.00080 -0.00030
O1 0.02630 0.02110 0.02530 0.00060 0.00300 0.00290
O2 0.03510 0.01980 0.02640 0.00430 -0.00330 -0.00280
O3 0.02730 0.02490 0.02330 -0.00190 0.00160 -0.00160
loop_
_atom_site_label
_atom_site_fract_x
_atom_site_fract_y
_atom_site_fract_z
_atom_site_occupancy
_atom_site_U_iso_or_equiv
Mn2+A 0.00000 0.31710 0.25000 0.79200 0.02350
Fe2+A 0.00000 0.31710 0.25000 0.13800 0.02350
Ti4+A 0.00000 0.31710 0.25000 0.07700 0.02350
Nb5+B 0.16280 0.17940 0.73630 0.89700 0.01760
Ta5+B 0.16280 0.17940 0.73630 0.08300 0.01760
Ca2+B 0.16280 0.17940 0.73630 0.00450 0.01760
Sn4+B 0.16280 0.17940 0.73630 0.00150 0.01760
Sc3+B 0.16280 0.17940 0.73630 0.00100 0.01760
W6+B 0.16280 0.17940 0.73630 0.00050 0.01760
O1 0.09810 0.09940 0.05360 1.00000 0.02420
O2 0.08290 0.38380 0.59690 1.00000 0.02710
O3 0.24460 0.12520 0.40770 1.00000 0.02520
loop_
_cod_related_entry_id
_cod_related_entry_database
_cod_related_entry_code
1 AMCSD 0008841
2 AMCSD 0008847
loop_
_[local]_alternative_name_id
_[local]_alternative_name_type
_[local]_alternative_name_source
_[local]_alternative_name_source_id
_[local]_alternative_name_value
1 mineral AMCSD 0008841 "Manganocolumbite"
2 mineral AMCSD 0008847 "Columbite-(Mn)"
_amcsd_database_code 0008841
