#------------------------------------------------------------------------------
#$Date: 2023-03-26 11:09:57 +0300 (Sun, 26 Mar 2023) $
#$Revision: 282068 $
#$URL: file:///home/coder/svn-repositories/cod/cif/9/00/70/9007006.cif $
#------------------------------------------------------------------------------
#
# This file is available in the Crystallography Open Database (COD),
# http://www.crystallography.net/. The original data for this entry
# were provided the American Mineralogist Crystal Structure Database,
# http://rruff.geo.arizona.edu/AMS/amcsd.php
#
# The file may be used within the scientific community so long as
# proper attribution is given to the journal article from which the
# data were obtained.
#
data_9007006
loop_
_publ_author_name
'Harrison, R. J.'
'Redfern, S. A. T.'
_publ_section_title
;
 Short- and long-range ordering in the ilmenite-hematite solid solution
 Sample: ilm65, T = 893 C
;
_journal_name_full               'Physics and Chemistry of Minerals'
_journal_page_first              399
_journal_page_last               412
_journal_paper_doi               10.1007/s002690100167
_journal_volume                  28
_journal_year                    2001
_chemical_formula_sum            'Fe1.35 O3 Ti0.65'
_chemical_name_mineral           Ilmenite
_space_group_IT_number           148
_symmetry_space_group_name_Hall  '-R 3'
_symmetry_space_group_name_H-M   'R -3 :H'
_cell_angle_alpha                90
_cell_angle_beta                 90
_cell_angle_gamma                120
_cell_length_a                   5.13122
_cell_length_b                   5.13122
_cell_length_c                   14.0301
_cell_volume                     319.914
_database_code_amcsd             0008591
_diffrn_ambient_temperature      1166.15
_exptl_crystal_density_diffrn    4.812
_cod_original_sg_symbol_H-M      'R -3'
_cod_original_formula_sum        '(Fe1.35 Ti.65) O3'
_cod_database_code               9007006
loop_
_space_group_symop_operation_xyz
x,y,z
2/3+x,1/3+y,1/3+z
1/3+x,2/3+y,2/3+z
y,-x+y,-z
2/3+y,1/3-x+y,1/3-z
1/3+y,2/3-x+y,2/3-z
-x+y,-x,z
2/3-x+y,1/3-x,1/3+z
1/3-x+y,2/3-x,2/3+z
-x,-y,-z
2/3-x,1/3-y,1/3-z
1/3-x,2/3-y,2/3-z
-y,x-y,z
2/3-y,1/3+x-y,1/3+z
1/3-y,2/3+x-y,2/3+z
x-y,x,-z
2/3+x-y,1/3+x,1/3-z
1/3+x-y,2/3+x,2/3-z
loop_
_atom_site_label
_atom_site_fract_x
_atom_site_fract_y
_atom_site_fract_z
_atom_site_occupancy
_atom_site_U_iso_or_equiv
FeA 0.00000 0.00000 0.35550 0.76700 0.02500
TiA 0.00000 0.00000 0.35550 0.23300 0.02500
FeB 0.00000 0.00000 0.14060 0.58300 0.02500
TiB 0.00000 0.00000 0.14060 0.41700 0.02500
O 0.31130 0.01010 0.24860 1.00000 0.02370
loop_
_cod_related_entry_id
_cod_related_entry_database
_cod_related_entry_code
1 AMCSD 0008591
