#------------------------------------------------------------------------------
#$Date: 2023-03-26 11:09:57 +0300 (Sun, 26 Mar 2023) $
#$Revision: 282068 $
#$URL: file:///home/coder/svn-repositories/cod/cif/9/00/77/9007768.cif $
#------------------------------------------------------------------------------
#
# This file is available in the Crystallography Open Database (COD),
# http://www.crystallography.net/. The original data for this entry
# were provided the American Mineralogist Crystal Structure Database,
# http://rruff.geo.arizona.edu/AMS/amcsd.php
#
# The file may be used within the scientific community so long as
# proper attribution is given to the journal article from which the
# data were obtained.
#
data_9007768
loop_
_publ_author_name
'Hippler, K.'
'Sitta, S.'
'Vogt, P.'
'Sabrowsky, H.'
_publ_section_title
;
 Structure of Na3OCl
;
_journal_name_full               'Acta Crystallographica, Section C'
_journal_page_first              736
_journal_page_last               738
_journal_paper_doi               10.1107/S010827018900990X
_journal_volume                  46
_journal_year                    1990
_chemical_formula_structural     Na3OCl
_chemical_formula_sum            'Cl Na3 O'
_space_group_IT_number           221
_symmetry_space_group_name_Hall  '-P 4 2 3'
_symmetry_space_group_name_H-M   'P m -3 m'
_cell_angle_alpha                90
_cell_angle_beta                 90
_cell_angle_gamma                90
_cell_length_a                   4.496
_cell_length_b                   4.496
_cell_length_c                   4.496
_cell_volume                     90.882
_database_code_amcsd             0010128
_exptl_crystal_density_diffrn    2.200
_cod_original_sg_symbol_H-M      'P m 3 m'
_cod_original_formula_sum        'O Cl Na3'
_cod_database_code               9007768
_amcsd_formula_title             Na3OCl
loop_
_space_group_symop_operation_xyz
x,y,z
z,-x,y
-y,z,-x
x,-y,z
-z,x,-y
y,-z,x
-x,y,-z
x,-z,-y
-z,y,x
y,-x,-z
-x,z,y
z,-y,-x
-y,x,z
x,z,y
-z,-y,-x
y,x,z
-x,-z,-y
z,y,x
-y,-x,-z
z,x,-y
-y,-z,x
x,y,-z
-z,-x,y
y,z,-x
-x,-y,z
-z,x,y
y,-z,-x
-x,y,z
z,-x,-y
-y,z,x
x,-y,-z
-x,z,-y
z,-y,x
-y,x,-z
x,-z,y
-z,y,-x
y,-x,z
-x,-z,y
z,y,-x
-y,-x,z
x,z,-y
-z,-y,x
y,x,-z
-z,-x,-y
y,z,x
-x,-y,-z
z,x,y
-y,-z,-x
loop_
_atom_site_aniso_label
_atom_site_aniso_U_11
_atom_site_aniso_U_22
_atom_site_aniso_U_33
_atom_site_aniso_U_12
_atom_site_aniso_U_13
_atom_site_aniso_U_23
O 0.01330 0.01330 0.01330 0.00000 0.00000 0.00000
Cl 0.02810 0.02810 0.02810 0.00000 0.00000 0.00000
Na 0.01250 0.05430 0.05430 0.00000 0.00000 0.00000
loop_
_atom_site_label
_atom_site_fract_x
_atom_site_fract_y
_atom_site_fract_z
O 0.00000 0.00000 0.00000
Cl 0.50000 0.50000 0.50000
Na 0.50000 0.00000 0.00000
loop_
_cod_related_entry_id
_cod_related_entry_database
_cod_related_entry_code
1 AMCSD 0010128
