#------------------------------------------------------------------------------
#$Date: 2023-03-26 11:09:57 +0300 (Sun, 26 Mar 2023) $
#$Revision: 282068 $
#$URL: file:///home/coder/svn-repositories/cod/cif/9/00/76/9007667.cif $
#------------------------------------------------------------------------------
#
# This file is available in the Crystallography Open Database (COD),
# http://www.crystallography.net/. The original data for this entry
# were provided the American Mineralogist Crystal Structure Database,
# http://rruff.geo.arizona.edu/AMS/amcsd.php
#
# The file may be used within the scientific community so long as
# proper attribution is given to the journal article from which the
# data were obtained.
#
data_9007667
loop_
_publ_author_name
'Lyman, P. S.'
'Prewitt, C. T.'
_publ_section_title
;
 Room- and high-pressure crystal chemistry of CoAs and FeAs
 Note: anisoB's taken from ICSD
 Sample: Pna2_1 refinement, P = .0001 GPa
;
_journal_issue                   1
_journal_name_full               'Acta Crystallographica, Section B'
_journal_page_first              14
_journal_page_last               20
_journal_paper_doi               10.1107/S0108768184001695
_journal_volume                  40
_journal_year                    1984
_chemical_compound_source        Synthetic
_chemical_formula_sum            'As Fe'
_chemical_name_mineral           Westerveldite
_space_group_IT_number           33
_symmetry_space_group_name_Hall  'P 2c -2n'
_symmetry_space_group_name_H-M   'P n a 21'
_cell_angle_alpha                90
_cell_angle_beta                 90
_cell_angle_gamma                90
_cell_length_a                   5.4401
_cell_length_b                   6.0259
_cell_length_c                   3.3712
_cell_volume                     110.513
_database_code_amcsd             0009796
_diffrn_ambient_pressure         100
_exptl_crystal_density_diffrn    7.860
_cod_original_formula_sum        'Fe As'
_cod_database_code               9007667
loop_
_space_group_symop_operation_xyz
x,y,z
1/2+x,1/2-y,z
1/2-x,1/2+y,1/2+z
-x,-y,1/2+z
loop_
_atom_site_aniso_label
_atom_site_aniso_U_11
_atom_site_aniso_U_22
_atom_site_aniso_U_33
_atom_site_aniso_U_12
_atom_site_aniso_U_13
_atom_site_aniso_U_23
Fe 0.00435 0.00552 0.01048 0.00008 0.00260 0.00062
As 0.00510 0.00570 0.00656 0.00042 0.00037 0.00021
loop_
_atom_site_label
_atom_site_fract_x
_atom_site_fract_y
_atom_site_fract_z
Fe 0.00316 0.19929 0.25000
As 0.19923 0.57736 0.25120
loop_
_cod_related_entry_id
_cod_related_entry_database
_cod_related_entry_code
1 AMCSD 0009796
