#------------------------------------------------------------------------------
#$Date: 2016-02-13 21:28:24 +0200 (Sat, 13 Feb 2016) $
#$Revision: 176429 $
#$URL: svn://www.crystallography.net/cod/cif/9/00/74/9007433.cif $
#------------------------------------------------------------------------------
#
# This file is available in the Crystallography Open Database (COD),
# http://www.crystallography.net/. The original data for this entry
# were provided the American Mineralogist Crystal Structure Database,
# http://rruff.geo.arizona.edu/AMS/amcsd.php
#
# The file may be used within the scientific community so long as
# proper attribution is given to the journal article from which the
# data were obtained.
#
data_9007433
loop_
_publ_author_name
'Baur, W. H.'
_publ_section_title
;
 \"Uber die Verfeinerung der Kristallstrukturbestimmung einiger
 Vertreter des Rutiltyps: TiO~2~, SnO~2~, GeO~2~ und MgF~2~
;
_journal_issue                   6
_journal_name_full               'Acta Crystallographica'
_journal_page_first              515
_journal_page_last               520
_journal_paper_doi               10.1107/S0365110X56001388
_journal_volume                  9
_journal_year                    1956
_chemical_formula_sum            'O2 Sn'
_chemical_name_mineral           Cassiterite
_chemical_name_systematic        'Tin(IV) oxide'
_space_group_IT_number           136
_symmetry_space_group_name_Hall  '-P 4n 2n'
_symmetry_space_group_name_H-M   'P 42/m n m'
_cell_angle_alpha                90
_cell_angle_beta                 90
_cell_angle_gamma                90
_cell_length_a                   4.737(1)
_cell_length_b                   4.737(1)
_cell_length_c                   3.185(1)
_cell_volume                     71.469
_exptl_crystal_density_diffrn    7.003
_cod_duplicate_entry             5000224
_cod_original_formula_sum        'Sn O2'
_cod_database_code               9007433
loop_
_symmetry_equiv_pos_as_xyz
x,y,z
-y,-x,z
y,x,-z
1/2+y,1/2-x,1/2-z
1/2-y,1/2+x,1/2+z
1/2+x,1/2-y,1/2+z
1/2-x,1/2+y,1/2-z
x,y,-z
-x,-y,z
y,x,z
-y,-x,-z
1/2-y,1/2+x,1/2-z
1/2+y,1/2-x,1/2+z
1/2-x,1/2+y,1/2+z
1/2+x,1/2-y,1/2-z
-x,-y,-z
loop_
_atom_site_label
_atom_site_fract_x
_atom_site_fract_y
_atom_site_fract_z
_atom_site_U_iso_or_equiv
Sn 0.00000 0.00000 0.00000 0.00127
O 0.30700 0.30700 0.00000 0.00127
