#------------------------------------------------------------------------------
#$Date: 2023-03-26 11:09:57 +0300 (Sun, 26 Mar 2023) $
#$Revision: 282068 $
#$URL: file:///home/coder/svn-repositories/cod/cif/9/00/77/9007713.cif $
#------------------------------------------------------------------------------
#
# This file is available in the Crystallography Open Database (COD),
# http://www.crystallography.net/. The original data for this entry
# were provided the American Mineralogist Crystal Structure Database,
# http://rruff.geo.arizona.edu/AMS/amcsd.php
#
# The file may be used within the scientific community so long as
# proper attribution is given to the journal article from which the
# data were obtained.
#
data_9007713
loop_
_publ_author_name
'Pertlik, F.'
_publ_section_title
;Structures of hydrothermally synthesized cobalt(II) carbonate and nickel(II)
 carbonate Locality: synthetic
;
_journal_name_full               'Acta Crystallographica, Section C'
_journal_page_first              4
_journal_page_last               5
_journal_paper_doi               10.1107/S0108270186097524
_journal_volume                  42
_journal_year                    1986
_chemical_compound_source        Synthetic
_chemical_formula_sum            'C Co O3'
_chemical_name_mineral           Spherocobaltite
_space_group_IT_number           167
_symmetry_space_group_name_Hall  '-R 3 2"c'
_symmetry_space_group_name_H-M   'R -3 c :H'
_cell_angle_alpha                90
_cell_angle_beta                 90
_cell_angle_gamma                120
_cell_length_a                   4.6618
_cell_length_b                   4.6618
_cell_length_c                   14.963
_cell_volume                     281.616
_database_code_amcsd             0010021
_exptl_crystal_density_diffrn    4.208
_cod_original_cell_volume        281.615
_cod_original_sg_symbol_H-M      'R -3 c'
_cod_original_formula_sum        'Co C O3'
_cod_database_code               9007713
loop_
_space_group_symop_operation_xyz
x,y,z
2/3+x,1/3+y,1/3+z
1/3+x,2/3+y,2/3+z
x,x-y,1/2+z
2/3+x,1/3+x-y,5/6+z
1/3+x,2/3+x-y,1/6+z
y,x,1/2-z
2/3+y,1/3+x,5/6-z
1/3+y,2/3+x,1/6-z
-x+y,y,1/2+z
2/3-x+y,1/3+y,5/6+z
1/3-x+y,2/3+y,1/6+z
-x,-x+y,1/2-z
2/3-x,1/3-x+y,5/6-z
1/3-x,2/3-x+y,1/6-z
-y,-x,1/2+z
2/3-y,1/3-x,5/6+z
1/3-y,2/3-x,1/6+z
x-y,-y,1/2-z
2/3+x-y,1/3-y,5/6-z
1/3+x-y,2/3-y,1/6-z
y,-x+y,-z
2/3+y,1/3-x+y,1/3-z
1/3+y,2/3-x+y,2/3-z
-x+y,-x,z
2/3-x+y,1/3-x,1/3+z
1/3-x+y,2/3-x,2/3+z
-x,-y,-z
2/3-x,1/3-y,1/3-z
1/3-x,2/3-y,2/3-z
-y,x-y,z
2/3-y,1/3+x-y,1/3+z
1/3-y,2/3+x-y,2/3+z
x-y,x,-z
2/3+x-y,1/3+x,1/3-z
1/3+x-y,2/3+x,2/3-z
loop_
_atom_site_aniso_label
_atom_site_aniso_U_11
_atom_site_aniso_U_22
_atom_site_aniso_U_33
_atom_site_aniso_U_12
_atom_site_aniso_U_13
_atom_site_aniso_U_23
Co 0.00570 0.00570 0.00690 0.00285 0.00000 0.00000
C 0.00570 0.00570 0.00590 0.00285 0.00000 0.00000
O 0.00640 0.00420 0.00940 0.00210 -0.00100 -0.00200
loop_
_atom_site_label
_atom_site_fract_x
_atom_site_fract_y
_atom_site_fract_z
Co 0.00000 0.00000 0.00000
C 0.00000 0.00000 0.25000
O 0.72340 0.72340 0.25000
loop_
_cod_related_entry_id
_cod_related_entry_database
_cod_related_entry_code
1 AMCSD 0010021
