#------------------------------------------------------------------------------
#$Date: 2023-03-26 11:09:57 +0300 (Sun, 26 Mar 2023) $
#$Revision: 282068 $
#$URL: file:///home/coder/svn-repositories/cod/cif/9/00/72/9007241.cif $
#------------------------------------------------------------------------------
#
# This file is available in the Crystallography Open Database (COD),
# http://www.crystallography.net/. The original data for this entry
# were provided the American Mineralogist Crystal Structure Database,
# http://rruff.geo.arizona.edu/AMS/amcsd.php
#
# The file may be used within the scientific community so long as
# proper attribution is given to the journal article from which the
# data were obtained.
#
data_9007241
loop_
_publ_author_name
'Lundegaard, L. F.'
'Miletich, R.'
'Balic-Zunic T'
'Makovicky, E.'
_publ_section_title
;
 Equation of state and crystal structure of Sb2S3 between 0 and 10 GPa
 Sample: Romania, P = 1.115 GPa
;
_journal_name_full               'Physics and Chemistry of Minerals'
_journal_page_first              463
_journal_page_last               468
_journal_paper_doi               10.1007/s00269-003-0339-x
_journal_volume                  30
_journal_year                    2003
_chemical_formula_sum            'S3 Sb2'
_chemical_name_mineral           Stibnite
_space_group_IT_number           62
_symmetry_space_group_name_Hall  '-P 2ac 2n'
_symmetry_space_group_name_H-M   'P n m a'
_cell_angle_alpha                90
_cell_angle_beta                 90
_cell_angle_gamma                90
_cell_length_a                   11.098
_cell_length_b                   3.8232
_cell_length_c                   11.091
_cell_volume                     470.590
_database_code_amcsd             0008826
_diffrn_ambient_pressure         1.115e+06
_exptl_crystal_density_diffrn    4.795
_cod_original_formula_sum        'Sb2 S3'
_cod_database_code               9007241
loop_
_space_group_symop_operation_xyz
x,y,z
x,1/2-y,z
-x,1/2+y,-z
1/2-x,1/2+y,1/2+z
1/2+x,1/2-y,1/2-z
1/2+x,y,1/2-z
1/2-x,-y,1/2+z
-x,-y,-z
loop_
_atom_site_label
_atom_site_fract_x
_atom_site_fract_y
_atom_site_fract_z
_atom_site_U_iso_or_equiv
Sb1 0.02500 0.25000 0.67400 0.01460
Sb2 0.34680 0.25000 0.46380 0.02120
S1 0.05290 0.25000 0.12360 0.01020
S2 0.37670 0.25000 0.06150 0.01200
S3 0.20980 0.25000 0.80680 0.01640
loop_
_cod_related_entry_id
_cod_related_entry_database
_cod_related_entry_code
1 AMCSD 0008826
