#------------------------------------------------------------------------------
#$Date: 2023-11-12 12:37:04 +0200 (Sun, 12 Nov 2023) $
#$Revision: 287555 $
#$URL: file:///home/coder/svn-repositories/cod/cif/9/00/74/9007420.cif $
#------------------------------------------------------------------------------
#
# This file is available in the Crystallography Open Database (COD),
# http://www.crystallography.net/. The original data for this entry
# were provided the American Mineralogist Crystal Structure Database,
# http://rruff.geo.arizona.edu/AMS/amcsd.php
#
# The file may be used within the scientific community so long as
# proper attribution is given to the journal article from which the
# data were obtained.
#
data_9007420
loop_
_publ_author_name
'Gatta, G. D.'
'Nestola, F.'
'Ballaran, T. B.'
_publ_section_title
;
 Elastic behaviour and structural evolution
 of topaz at high pressure
 Locality: Ouro Preto, Minas Gerias, Brazil
 Sample: P = .0001 GPa
;
_journal_name_full               'Physics and Chemistry of Minerals'
_journal_page_first              235
_journal_page_last               242
_journal_paper_doi               10.1007/s00269-006-0075-0
_journal_volume                  33
_journal_year                    2006
_chemical_formula_sum            'Al2 F2 O4 Si'
_chemical_name_mineral           Topaz
_space_group_IT_number           62
_symmetry_space_group_name_Hall  '-P 2c 2ab'
_symmetry_space_group_name_H-M   'P b n m'
_cell_angle_alpha                90
_cell_angle_beta                 90
_cell_angle_gamma                90
_cell_length_a                   4.6627
_cell_length_b                   8.8343
_cell_length_c                   8.3867
_cell_volume                     345.462
_diffrn_ambient_pressure         100
_exptl_crystal_density_diffrn    3.539
_cod_depositor_comments
;
  Adding _atom_site_type_symbol tag to avoid confusion between
  'F' and 'Fo' atom types.

  Andrius Merkys
  2014-01-10
;
_cod_original_formula_sum        'Al2 Si O4 F2'
_cod_database_code               9007420
loop_
_symmetry_equiv_pos_as_xyz
x,y,z
x,y,1/2-z
-x,-y,1/2+z
1/2+x,1/2-y,1/2+z
1/2-x,1/2+y,1/2-z
1/2-x,1/2+y,z
1/2+x,1/2-y,-z
-x,-y,-z
loop_
_atom_site_type_symbol
_atom_site_label
_atom_site_fract_x
_atom_site_fract_y
_atom_site_fract_z
_atom_site_U_iso_or_equiv
Al Al 0.90470 0.13090 0.08170 0.00530
Si Si 0.40050 0.94090 0.25000 0.00440
O O1 0.79630 0.53210 0.25000 0.00570
O O2 0.45310 0.75590 0.25000 0.00350
O O3 0.79040 0.01080 0.90690 0.00640
F FO 0.90060 0.75330 0.05990 0.01170
_database_code_amcsd 0009026
