#------------------------------------------------------------------------------
#$Date: 2023-11-12 12:37:04 +0200 (Sun, 12 Nov 2023) $
#$Revision: 287555 $
#$URL: file:///home/coder/svn-repositories/cod/cif/9/00/73/9007302.cif $
#------------------------------------------------------------------------------
#
# This file is available in the Crystallography Open Database (COD),
# http://www.crystallography.net/. The original data for this entry
# were provided the American Mineralogist Crystal Structure Database,
# http://rruff.geo.arizona.edu/AMS/amcsd.php
#
# The file may be used within the scientific community so long as
# proper attribution is given to the journal article from which the
# data were obtained.
#
data_9007302
loop_
_publ_author_name
'Schofield, P. F.'
'Knight, K. S.'
'van der Houwen, J. A. M.'
'Valsami-Jones E'
_publ_section_title
;
 The role of hydrogen bonding in the thermal expansion and dehydration
 of brushite, di-calcium phosphate dihydrate
 Sample: T = 225 K
;
_journal_name_full               'Physics and Chemistry of Minerals'
_journal_page_first              606
_journal_page_last               624
_journal_paper_doi               10.1007/s00269-004-0419-6
_journal_volume                  31
_journal_year                    2004
_chemical_formula_sum            'Ca D5 O6 P'
_chemical_name_mineral           'Brushite (deuterated)'
_space_group_IT_number           9
_symmetry_space_group_name_Hall  'I -2ya'
_symmetry_space_group_name_H-M   'I 1 a 1'
_cell_angle_alpha                90
_cell_angle_beta                 116.410
_cell_angle_gamma                90
_cell_formula_units_Z            4
_cell_length_a                   5.8062
_cell_length_b                   15.1482
_cell_length_c                   6.2118
_cell_volume                     489.329
_diffrn_ambient_temperature      225
_exptl_crystal_density_diffrn    2.404
_cod_original_formula_sum        'Ca P O6 D5'
_cod_database_code               9007302
loop_
_symmetry_equiv_pos_as_xyz
x,y,z
1/2+x,1/2+y,1/2+z
1/2+x,-y,z
+x,1/2-y,1/2+z
loop_
_atom_site_label
_atom_site_fract_x
_atom_site_fract_y
_atom_site_fract_z
_atom_site_U_iso_or_equiv
_atom_site_type_symbol
_atom_site_attached_hydrogens
Ca 0.50000 0.32740 0.25000 0.00720 Ca 0
P -0.00960 0.32230 0.72830 0.00110 P 0
OD1 -0.01020 0.36740 -0.03790 0.00820 O 0
O2 0.25530 0.28180 0.82290 0.00680 O 0
O3 -0.06100 0.39320 0.54170 0.00860 O 0
O4 0.77820 0.25310 0.63430 0.00470 O 0
OD2O1 0.36500 0.42570 0.48260 0.01210 O 0
OD2O2 0.52670 0.44610 0.01630 0.01940 O 0
D1 -0.09810 0.32990 0.03330 0.02190 D 0
D2 0.38370 0.48880 0.49120 0.01950 D 0
D3 0.20570 0.41180 0.48230 0.02310 D 0
D4 0.51490 0.51050 0.01910 0.03590 D 0
D5 0.50380 0.43310 0.86080 0.04270 D 0
loop_
_cod_changelog_entry_id
_cod_changelog_entry_author
_cod_changelog_entry_date
_cod_changelog_entry_text
1
;cod-tools version 3.8.0
Id: cif_guess_AMCSD_atom_types 9581 2023-05-17 12:35:41Z saulius
;
2023-05-23T09:19:50+03:00
;Derived atom types and hydrogen counts
from atom names that follow the AMCSD naming convention
(Wat == water, O-H == hydroxyl).
;
_database_code_amcsd 0008895
