#------------------------------------------------------------------------------
#$Date: 2023-03-26 11:09:57 +0300 (Sun, 26 Mar 2023) $
#$Revision: 282068 $
#$URL: file:///home/coder/svn-repositories/cod/cif/9/00/89/9008995.cif $
#------------------------------------------------------------------------------
#
# This file is available in the Crystallography Open Database (COD),
# http://www.crystallography.net/. The original data for this entry
# were provided the American Mineralogist Crystal Structure Database,
# http://rruff.geo.arizona.edu/AMS/amcsd.php
#
# The file may be used within the scientific community so long as
# proper attribution is given to the journal article from which the
# data were obtained.
#
data_9008995
loop_
_publ_author_name
'Wyckoff, R. W. G.'
_publ_section_title
;
 Second edition. Interscience Publishers, New York, New York
;
_journal_name_full               'Crystal Structures'
_journal_page_first              85
_journal_page_last               237
_journal_volume                  1
_journal_year                    1963
_chemical_formula_structural     B4Cl4
_chemical_formula_sum            'B Cl'
_space_group_IT_number           137
_symmetry_space_group_name_Hall  'P 4n 2n -1n'
_symmetry_space_group_name_H-M   'P 42/n m c :1'
_cell_angle_alpha                90
_cell_angle_beta                 90
_cell_angle_gamma                90
_cell_length_a                   8.09
_cell_length_b                   8.09
_cell_length_c                   5.45
_cell_volume                     356.692
_database_code_amcsd             0011673
_exptl_crystal_density_diffrn    1.723
_cod_original_sg_symbol_H-M      'P 42/n m c'
_cod_original_formula_sum        'Cl B'
_cod_database_code               9008995
_amcsd_formula_title             B4Cl4
loop_
_space_group_symop_operation_xyz
x,y,z
1/2-y,1/2-x,1/2+z
y,x,-z
y,-x,-z
1/2-y,1/2+x,1/2+z
x,-y,z
1/2-x,1/2+y,1/2-z
1/2+x,1/2+y,1/2-z
-x,-y,z
1/2+y,1/2+x,1/2+z
-y,-x,-z
-y,x,-z
1/2+y,1/2-x,1/2+z
-x,y,z
1/2+x,1/2-y,1/2-z
1/2-x,1/2-y,1/2-z
loop_
_atom_site_label
_atom_site_fract_x
_atom_site_fract_y
_atom_site_fract_z
Cl 0.00000 0.27560 0.20500
B 0.00000 0.10430 0.38730
loop_
_cod_related_entry_id
_cod_related_entry_database
_cod_related_entry_code
1 AMCSD 0011673
