#------------------------------------------------------------------------------
#$Date: 2023-03-26 11:09:57 +0300 (Sun, 26 Mar 2023) $
#$Revision: 282068 $
#$URL: file:///home/coder/svn-repositories/cod/cif/9/00/83/9008351.cif $
#------------------------------------------------------------------------------
#
# This file is available in the Crystallography Open Database (COD),
# http://www.crystallography.net/. The original data for this entry
# were provided the American Mineralogist Crystal Structure Database,
# http://rruff.geo.arizona.edu/AMS/amcsd.php
#
# The file may be used within the scientific community so long as
# proper attribution is given to the journal article from which the
# data were obtained.
#
data_9008351
loop_
_publ_author_name
'Pearson, W. B.'
_publ_section_title
;
 The Cu2Sb and related structures
;
_journal_name_full               'Zeitschrift fur Kristallographie'
_journal_page_first              23
_journal_page_last               39
_journal_volume                  171
_journal_year                    1985
_chemical_formula_structural     Ca2As
_chemical_formula_sum            'As Ca2'
_space_group_IT_number           139
_symmetry_space_group_name_Hall  '-I 4 2'
_symmetry_space_group_name_H-M   'I 4/m m m'
_cell_angle_alpha                90
_cell_angle_beta                 90
_cell_angle_gamma                90
_cell_length_a                   4.63
_cell_length_b                   4.63
_cell_length_c                   15.56
_cell_volume                     333.558
_database_code_amcsd             0010909
_exptl_crystal_density_diffrn    3.088
_cod_original_formula_sum        'Ca2 As'
_cod_database_code               9008351
_amcsd_formula_title             Ca2As
loop_
_space_group_symop_operation_xyz
x,y,z
1/2+x,1/2+y,1/2+z
-y,-x,z
1/2-y,1/2-x,1/2+z
y,x,-z
1/2+y,1/2+x,1/2-z
y,-x,-z
1/2+y,1/2-x,1/2-z
-y,x,z
1/2-y,1/2+x,1/2+z
x,-y,z
1/2+x,1/2-y,1/2+z
-x,y,-z
1/2-x,1/2+y,1/2-z
x,y,-z
1/2+x,1/2+y,1/2-z
-x,-y,z
1/2-x,1/2-y,1/2+z
y,x,z
1/2+y,1/2+x,1/2+z
-y,-x,-z
1/2-y,1/2-x,1/2-z
-y,x,-z
1/2-y,1/2+x,1/2-z
y,-x,z
1/2+y,1/2-x,1/2+z
-x,y,z
1/2-x,1/2+y,1/2+z
x,-y,-z
1/2+x,1/2-y,1/2-z
-x,-y,-z
1/2-x,1/2-y,1/2-z
loop_
_atom_site_label
_atom_site_fract_x
_atom_site_fract_y
_atom_site_fract_z
Ca1 0.00000 0.50000 0.00000
Ca2 0.00000 0.00000 0.32800
As 0.00000 0.00000 0.13500
loop_
_cod_related_entry_id
_cod_related_entry_database
_cod_related_entry_code
1 AMCSD 0010909
