#------------------------------------------------------------------------------
#$Date: 2023-03-26 11:09:57 +0300 (Sun, 26 Mar 2023) $
#$Revision: 282068 $
#$URL: file:///home/coder/svn-repositories/cod/cif/9/00/81/9008116.cif $
#------------------------------------------------------------------------------
#
# This file is available in the Crystallography Open Database (COD),
# http://www.crystallography.net/. The original data for this entry
# were provided the American Mineralogist Crystal Structure Database,
# http://rruff.geo.arizona.edu/AMS/amcsd.php
#
# The file may be used within the scientific community so long as
# proper attribution is given to the journal article from which the
# data were obtained.
#
data_9008116
loop_
_publ_author_name
'Segal, D. J.'
'Santoro, R. P.'
'Newnham, R. E.'
_publ_section_title
;
 Neutron-diffraction study of Bi4Si3O12
;
_journal_name_full               'Zeitschrift fur Kristallographie'
_journal_page_first              73
_journal_page_last               76
_journal_volume                  123
_journal_year                    1966
_chemical_compound_source        Synthetic
_chemical_formula_sum            'Bi4 O12 Si3'
_chemical_name_mineral           Eulytine
_space_group_IT_number           220
_symmetry_space_group_name_Hall  'I -4bd 2c 3'
_symmetry_space_group_name_H-M   'I -4 3 d'
_cell_angle_alpha                90
_cell_angle_beta                 90
_cell_angle_gamma                90
_cell_length_a                   10.300
_cell_length_b                   10.300
_cell_length_c                   10.300
_cell_volume                     1092.727
_database_code_amcsd             0010629
_exptl_crystal_density_diffrn    6.760
_cod_original_formula_sum        'Bi4 Si3 O12'
_cod_database_code               9008116
loop_
_space_group_symop_operation_xyz
x,y,z
1/2+x,1/2+y,1/2+z
1/2-z,x,-y
-z,1/2+x,1/2-y
1/2-y,z,-x
-y,1/2+z,1/2-x
1/2-x,y,-z
-x,1/2+y,1/2-z
1/4+x,3/4-z,1/4-y
3/4+x,1/4-z,3/4-y
1/4+z,3/4-y,1/4-x
3/4+z,1/4-y,3/4-x
1/4+y,3/4-x,1/4-z
3/4+y,1/4-x,3/4-z
1/4+x,1/4+z,1/4+y
3/4+x,3/4+z,3/4+y
1/4+z,1/4+y,1/4+x
3/4+z,3/4+y,3/4+x
1/4+y,1/4+x,1/4+z
3/4+y,3/4+x,3/4+z
-z,1/2-x,y
1/2-z,-x,1/2+y
-y,1/2-z,x
1/2-y,-z,1/2+x
-x,1/2-y,z
1/2-x,-y,1/2+z
1/2+z,1/2-x,-y
+z,-x,1/2-y
1/2+y,1/2-z,-x
+y,-z,1/2-x
1/2+x,1/2-y,-z
+x,-y,1/2-z
3/4-x,3/4+z,1/4-y
1/4-x,1/4+z,3/4-y
3/4-z,3/4+y,1/4-x
1/4-z,1/4+y,3/4-x
3/4-y,3/4+x,1/4-z
1/4-y,1/4+x,3/4-z
3/4-x,1/4-z,1/4+y
1/4-x,3/4-z,3/4+y
3/4-z,1/4-y,1/4+x
1/4-z,3/4-y,3/4+x
3/4-y,1/4-x,1/4+z
1/4-y,3/4-x,3/4+z
z,x,y
1/2+z,1/2+x,1/2+y
y,z,x
1/2+y,1/2+z,1/2+x
loop_
_atom_site_label
_atom_site_fract_x
_atom_site_fract_y
_atom_site_fract_z
Bi 0.08570 0.08570 0.08570
Si 0.37500 0.00000 0.25000
O 0.06070 0.13350 0.28750
loop_
_cod_related_entry_id
_cod_related_entry_database
_cod_related_entry_code
1 AMCSD 0010629
