#------------------------------------------------------------------------------
#$Date: 2023-03-26 11:09:57 +0300 (Sun, 26 Mar 2023) $
#$Revision: 282068 $
#$URL: file:///home/coder/svn-repositories/cod/cif/9/00/81/9008148.cif $
#------------------------------------------------------------------------------
#
# This file is available in the Crystallography Open Database (COD),
# http://www.crystallography.net/. The original data for this entry
# were provided the American Mineralogist Crystal Structure Database,
# http://rruff.geo.arizona.edu/AMS/amcsd.php
#
# The file may be used within the scientific community so long as
# proper attribution is given to the journal article from which the
# data were obtained.
#
data_9008148
loop_
_publ_author_name
'Niizeki, N.'
'Wachi, M.'
_publ_section_title
;
 The crystal structures of Bi2Mn4O10, Bi2Al4O9 and Bi2Fe4O9
;
_journal_name_full               'Zeitschrift fur Kristallographie'
_journal_page_first              173
_journal_page_last               187
_journal_volume                  127
_journal_year                    1968
_chemical_formula_structural     Bi2Fe4O9
_chemical_formula_sum            'Bi2 Fe4 O9'
_space_group_IT_number           55
_symmetry_space_group_name_Hall  '-P 2 2ab'
_symmetry_space_group_name_H-M   'P b a m'
_cell_angle_alpha                90
_cell_angle_beta                 90
_cell_angle_gamma                90
_cell_length_a                   7.905
_cell_length_b                   8.428
_cell_length_c                   6.005
_cell_volume                     400.073
_database_code_amcsd             0010664
_exptl_crystal_density_diffrn    6.519
_cod_database_code               9008148
_amcsd_formula_title             Bi2Fe4O9
loop_
_space_group_symop_operation_xyz
x,y,z
1/2+x,1/2-y,z
1/2-x,1/2+y,-z
1/2-x,1/2+y,z
1/2+x,1/2-y,-z
x,y,-z
-x,-y,z
-x,-y,-z
loop_
_atom_site_label
_atom_site_fract_x
_atom_site_fract_y
_atom_site_fract_z
_atom_site_U_iso_or_equiv
Bi 0.17610 0.17150 0.00000 0.01418
Fe1 0.50000 0.00000 0.25700 0.01456
Fe2 0.35100 0.33400 0.50000 0.01583
O1 0.00000 0.00000 0.50000 0.01900
O2 0.37300 0.19800 0.24300 0.01267
O3 0.13700 0.41800 0.50000 0.01520
O4 0.14300 0.41500 0.00000 0.02026
loop_
_cod_related_entry_id
_cod_related_entry_database
_cod_related_entry_code
1 AMCSD 0010664
