#------------------------------------------------------------------------------
#$Date: 2023-05-10 20:44:19 +0300 (Wed, 10 May 2023) $
#$Revision: 283658 $
#$URL: file:///home/coder/svn-repositories/cod/cif/9/00/81/9008117.cif $
#------------------------------------------------------------------------------
#
# This file is available in the Crystallography Open Database (COD),
# http://www.crystallography.net/. The original data for this entry
# were provided the American Mineralogist Crystal Structure Database,
# http://rruff.geo.arizona.edu/AMS/amcsd.php
#
# The file may be used within the scientific community so long as
# proper attribution is given to the journal article from which the
# data were obtained.
#
data_9008117
loop_
_publ_author_name
'Cocco, G.'
'Fanfani, L.'
'Zanazzi, P. F.'
_publ_section_title
;
 The crystal structure of tarbuttite, Zn2(OH)PO4
;
_journal_name_full               'Zeitschrift fur Kristallographie'
_journal_page_first              321
_journal_page_last               329
_journal_paper_doi               10.1524/zkri.1966.123.5.321
_journal_volume                  123
_journal_year                    1966
_chemical_compound_source        'Broken Hill, Rhodesia'
_chemical_formula_sum            'H O5 P Zn2'
_chemical_name_mineral           Tarbuttite
_space_group_IT_number           2
_symmetry_space_group_name_Hall  '-P 1'
_symmetry_space_group_name_H-M   'P -1'
_cell_angle_alpha                102.85
_cell_angle_beta                 102.77
_cell_angle_gamma                86.83
_cell_formula_units_Z            2
_cell_length_a                   5.499
_cell_length_b                   5.654
_cell_length_c                   6.465
_cell_volume                     191.120
_database_code_amcsd             0010630
_exptl_crystal_density_diffrn    4.218
_cod_original_formula_sum        'Zn2 P O5 H'
_cod_database_code               9008117
loop_
_space_group_symop_operation_xyz
x,y,z
-x,-y,-z
loop_
_atom_site_label
_atom_site_fract_x
_atom_site_fract_y
_atom_site_fract_z
_atom_site_U_iso_or_equiv
_atom_site_type_symbol
_atom_site_attached_hydrogens
Zn1 0.38660 0.24810 0.49230 0.00215 Zn 0
Zn2 0.02780 0.73840 0.18970 0.00063 Zn 0
P 0.83870 0.25000 0.27350 0.00253 P 0
O1 0.77240 0.99170 0.14820 0.00228 O 0
O2 0.93570 0.38670 0.12870 0.00152 O 0
O3 0.60340 0.38170 0.33380 0.00279 O 0
O4 0.97220 0.74580 0.50830 0.00317 O 0
O-H 0.36610 0.88500 0.29900 0.00177 O 1
loop_
_cod_changelog_entry_id
_cod_changelog_entry_author
_cod_changelog_entry_date
_cod_changelog_entry_text
1
;cod-tools version 3.8.0
Id: cif_guess_AMCSD_atom_types 9574 2023-05-10 09:00:05Z saulius
;
2023-05-10T18:51:11+03:00
;Derived atom types and hydrogen counts
from atom names that follow the AMCSD naming convention
(Wat == water, O-H == hydroxyl).
;
loop_
_cod_related_entry_id
_cod_related_entry_database
_cod_related_entry_code
1 AMCSD 0010630
