#------------------------------------------------------------------------------
#$Date: 2023-03-26 11:09:57 +0300 (Sun, 26 Mar 2023) $
#$Revision: 282068 $
#$URL: file:///home/coder/svn-repositories/cod/cif/9/00/80/9008025.cif $
#------------------------------------------------------------------------------
#
# This file is available in the Crystallography Open Database (COD),
# http://www.crystallography.net/. The original data for this entry
# were provided the American Mineralogist Crystal Structure Database,
# http://rruff.geo.arizona.edu/AMS/amcsd.php
#
# The file may be used within the scientific community so long as
# proper attribution is given to the journal article from which the
# data were obtained.
#
data_9008025
loop_
_publ_author_name
'West, C. D.'
_publ_section_title
;
 The crystal structures of some alkali hydrosulfides and monosulfides
;
_journal_name_full               'Zeitschrift fur Kristallographie'
_journal_page_first              97
_journal_page_last               115
_journal_volume                  88
_journal_year                    1934
_chemical_formula_structural     RbSH
_chemical_formula_sum            'Rb S'
_space_group_IT_number           166
_symmetry_space_group_name_Hall  '-P 3* 2'
_symmetry_space_group_name_H-M   'R -3 m :R'
_cell_angle_alpha                69.33
_cell_angle_beta                 69.33
_cell_angle_gamma                69.33
_cell_length_a                   4.534
_cell_length_b                   4.534
_cell_length_c                   4.534
_cell_volume                     78.767
_database_code_amcsd             0010526
_exptl_crystal_density_diffrn    2.478
_cod_original_sg_symbol_H-M      'R -3 m'
_cod_database_code               9008025
_amcsd_formula_title             RbSH
loop_
_space_group_symop_operation_xyz
x,y,z
-x,-z,-y
-z,-x,-y
y,x,z
y,z,x
-z,-y,-x
-x,-y,-z
x,z,y
z,x,y
-y,-x,-z
-y,-z,-x
z,y,x
loop_
_atom_site_label
_atom_site_fract_x
_atom_site_fract_y
_atom_site_fract_z
Rb 0.00000 0.00000 0.00000
S 0.50000 0.50000 0.50000
loop_
_cod_related_entry_id
_cod_related_entry_database
_cod_related_entry_code
1 AMCSD 0010526
