#------------------------------------------------------------------------------
#$Date: 2023-03-26 11:09:57 +0300 (Sun, 26 Mar 2023) $
#$Revision: 282068 $
#$URL: file:///home/coder/svn-repositories/cod/cif/9/00/83/9008332.cif $
#------------------------------------------------------------------------------
#
# This file is available in the Crystallography Open Database (COD),
# http://www.crystallography.net/. The original data for this entry
# were provided the American Mineralogist Crystal Structure Database,
# http://rruff.geo.arizona.edu/AMS/amcsd.php
#
# The file may be used within the scientific community so long as
# proper attribution is given to the journal article from which the
# data were obtained.
#
data_9008332
loop_
_publ_author_name
'Pearson, W. B.'
_publ_section_title
;
 The Cu2Sb and related structures
;
_journal_name_full               'Zeitschrift fur Kristallographie'
_journal_page_first              23
_journal_page_last               39
_journal_volume                  171
_journal_year                    1985
_chemical_formula_structural     VZrSi
_chemical_formula_sum            'Si V Zr'
_space_group_IT_number           129
_symmetry_space_group_name_Hall  'P 4ab 2ab -1ab'
_symmetry_space_group_name_H-M   'P 4/n m m :1'
_cell_angle_alpha                90
_cell_angle_beta                 90
_cell_angle_gamma                90
_cell_length_a                   3.695
_cell_length_b                   3.695
_cell_length_c                   7.212
_cell_volume                     98.466
_database_code_amcsd             0010890
_exptl_crystal_density_diffrn    5.742
_cod_original_sg_symbol_H-M      'P 4/n m m'
_cod_original_formula_sum        'V Zr Si'
_cod_database_code               9008332
_amcsd_formula_title             VZrSi
loop_
_space_group_symop_operation_xyz
x,y,z
1/2-y,1/2-x,z
y,x,-z
y,-x,-z
1/2-y,1/2+x,z
x,-y,z
1/2-x,1/2+y,-z
1/2+x,1/2+y,-z
-x,-y,z
1/2+y,1/2+x,z
-y,-x,-z
-y,x,-z
1/2+y,1/2-x,z
-x,y,z
1/2+x,1/2-y,-z
1/2-x,1/2-y,-z
loop_
_atom_site_label
_atom_site_fract_x
_atom_site_fract_y
_atom_site_fract_z
V 0.00000 0.00000 0.00000
Zr 0.50000 0.00000 0.64000
Si 0.50000 0.00000 0.25500
loop_
_cod_related_entry_id
_cod_related_entry_database
_cod_related_entry_code
1 AMCSD 0010890
