#------------------------------------------------------------------------------
#$Date: 2023-03-26 11:09:57 +0300 (Sun, 26 Mar 2023) $
#$Revision: 282068 $
#$URL: file:///home/coder/svn-repositories/cod/cif/9/00/82/9008284.cif $
#------------------------------------------------------------------------------
#
# This file is available in the Crystallography Open Database (COD),
# http://www.crystallography.net/. The original data for this entry
# were provided the American Mineralogist Crystal Structure Database,
# http://rruff.geo.arizona.edu/AMS/amcsd.php
#
# The file may be used within the scientific community so long as
# proper attribution is given to the journal article from which the
# data were obtained.
#
data_9008284
loop_
_publ_author_name
'Pratt, J. L.'
'Bayliss, P.'
_publ_section_title
;
 Crystal-structure refinement of cattierite
 Note: pyrite structure
;
_journal_name_full               'Zeitschrift fur Kristallographie'
_journal_page_first              163
_journal_page_last               167
_journal_volume                  150
_journal_year                    1979
_chemical_compound_source        'Shinkolobwe Mine, Katanga, Zaire'
_chemical_formula_sum            'Co0.8 Fe0.11 Ni0.09 S2'
_chemical_name_mineral           Cattierite
_space_group_IT_number           205
_symmetry_space_group_name_Hall  '-P 2ac 2ab 3'
_symmetry_space_group_name_H-M   'P a -3'
_cell_angle_alpha                90
_cell_angle_beta                 90
_cell_angle_gamma                90
_cell_length_a                   5.5387
_cell_length_b                   5.5387
_cell_length_c                   5.5387
_cell_volume                     169.912
_database_code_amcsd             0010814
_exptl_crystal_density_diffrn    4.797
_cod_original_sg_symbol_H-M      'P a 3'
_cod_original_formula_sum        '(Co.8 Fe.11 Ni.09) S2'
_cod_database_code               9008284
loop_
_space_group_symop_operation_xyz
x,y,z
1/2+z,x,1/2-y
z,1/2-x,1/2+y
1/2-z,1/2+x,y
-z,-x,-y
1/2+y,1/2-z,-x
1/2-y,-z,1/2+x
-y,1/2+z,1/2-x
y,z,x
x,1/2-y,1/2+z
1/2-x,1/2+y,z
1/2+x,y,1/2-z
-x,-y,-z
1/2-z,-x,1/2+y
-z,1/2+x,1/2-y
1/2+z,1/2-x,-y
z,x,y
1/2-y,1/2+z,x
1/2+y,z,1/2-x
y,1/2-z,1/2+x
-y,-z,-x
-x,1/2+y,1/2-z
1/2+x,1/2-y,-z
1/2-x,-y,1/2+z
loop_
_atom_site_label
_atom_site_fract_x
_atom_site_fract_y
_atom_site_fract_z
_atom_site_occupancy
_atom_site_U_iso_or_equiv
Co 0.00000 0.00000 0.00000 0.80000 0.00481
Fe 0.00000 0.00000 0.00000 0.11000 0.00481
Ni 0.00000 0.00000 0.00000 0.09000 0.00481
S 0.39000 0.39000 0.39000 1.00000 0.00583
loop_
_cod_related_entry_id
_cod_related_entry_database
_cod_related_entry_code
1 AMCSD 0010814
