#------------------------------------------------------------------------------
#$Date: 2023-03-26 11:09:57 +0300 (Sun, 26 Mar 2023) $
#$Revision: 282068 $
#$URL: file:///home/coder/svn-repositories/cod/cif/9/00/99/9009901.cif $
#------------------------------------------------------------------------------
#
# This file is available in the Crystallography Open Database (COD),
# http://www.crystallography.net/. The original data for this entry
# were provided the American Mineralogist Crystal Structure Database,
# http://rruff.geo.arizona.edu/AMS/amcsd.php
#
# The file may be used within the scientific community so long as
# proper attribution is given to the journal article from which the
# data were obtained.
#
data_9009901
loop_
_publ_author_name
'Rost, E.'
'Vestersjo, E.'
_publ_section_title
;
 On the system Ni-Se-Te
 Note: Phase F, sample 87
;
_journal_name_full               'Acta Chemica Scandinavica'
_journal_page_first              2118
_journal_page_last               2134
_journal_paper_doi               10.3891/acta.chem.scand.22-2118
_journal_volume                  22
_journal_year                    1968
_chemical_compound_source        Synthetic
_chemical_formula_sum            'Ni0.966 Se0.4 Te0.634'
_chemical_name_mineral           Imgreite
_space_group_IT_number           194
_symmetry_space_group_name_Hall  '-P 6c 2c'
_symmetry_space_group_name_H-M   'P 63/m m c'
_cell_angle_alpha                90
_cell_angle_beta                 90
_cell_angle_gamma                120
_cell_length_a                   3.854
_cell_length_b                   3.854
_cell_length_c                   5.350
_cell_volume                     68.819
_database_code_amcsd             0011908
_exptl_crystal_density_diffrn    8.164
_cod_original_formula_sum        'Ni.966 Se.4 Te.634'
_cod_database_code               9009901
loop_
_space_group_symop_operation_xyz
x,y,z
-x,-x+y,1/2+z
x,x-y,1/2-z
-x+y,-x,1/2-z
x-y,x,1/2+z
-y,-x,z
y,x,-z
y,-x+y,-z
-y,x-y,z
x-y,-y,1/2+z
-x+y,y,1/2-z
x,y,1/2-z
-x,-y,1/2+z
x,x-y,z
-x,-x+y,-z
x-y,x,-z
-x+y,-x,z
y,x,1/2+z
-y,-x,1/2-z
-y,x-y,1/2-z
y,-x+y,1/2+z
-x+y,y,z
x-y,-y,-z
-x,-y,-z
loop_
_atom_site_label
_atom_site_fract_x
_atom_site_fract_y
_atom_site_fract_z
_atom_site_occupancy
Ni 0.00000 0.00000 0.00000 0.96600
Se 0.00000 0.00000 0.00000 0.03400
Se 0.33333 0.66667 0.25000 0.36600
Te 0.33333 0.66667 0.25000 0.63400
loop_
_cod_related_entry_id
_cod_related_entry_database
_cod_related_entry_code
1 AMCSD 0011908
