#------------------------------------------------------------------------------
#$Date: 2023-03-26 11:09:57 +0300 (Sun, 26 Mar 2023) $
#$Revision: 282068 $
#$URL: file:///home/coder/svn-repositories/cod/cif/9/00/99/9009992.cif $
#------------------------------------------------------------------------------
#
# This file is available in the Crystallography Open Database (COD),
# http://www.crystallography.net/. The original data for this entry
# were provided the American Mineralogist Crystal Structure Database,
# http://rruff.geo.arizona.edu/AMS/amcsd.php
#
# The file may be used within the scientific community so long as
# proper attribution is given to the journal article from which the
# data were obtained.
#
data_9009992
loop_
_publ_author_name
'Allen, S.'
_publ_section_title
;
 Phase transitions in proustite I. Structural studies
 Sample: T = 63 K
;
_journal_name_full               'Phase Transition'
_journal_page_first              1
_journal_page_last               24
_journal_paper_doi               10.1080/01411598508219887
_journal_volume                  6
_journal_year                    1985
_chemical_formula_sum            'Ag3 As S3'
_chemical_name_mineral           Proustite
_space_group_IT_number           161
_symmetry_space_group_name_Hall  'R 3 -2"c'
_symmetry_space_group_name_H-M   'R 3 c :H'
_cell_angle_alpha                90
_cell_angle_beta                 90
_cell_angle_gamma                120
_cell_length_a                   10.768
_cell_length_b                   10.768
_cell_length_c                   8.720
_cell_volume                     875.623
_database_code_amcsd             0014939
_diffrn_ambient_temperature      63
_exptl_crystal_density_diffrn    5.629
_cod_original_sg_symbol_H-M      'R 3 c'
_cod_database_code               9009992
loop_
_space_group_symop_operation_xyz
x,y,z
2/3+x,1/3+y,1/3+z
1/3+x,2/3+y,2/3+z
x,x-y,1/2+z
2/3+x,1/3+x-y,5/6+z
1/3+x,2/3+x-y,1/6+z
-y,-x,1/2+z
2/3-y,1/3-x,5/6+z
1/3-y,2/3-x,1/6+z
-x+y,y,1/2+z
2/3-x+y,1/3+y,5/6+z
1/3-x+y,2/3+y,1/6+z
-y,x-y,z
2/3-y,1/3+x-y,1/3+z
1/3-y,2/3+x-y,2/3+z
-x+y,-x,z
2/3-x+y,1/3-x,1/3+z
1/3-x+y,2/3-x,2/3+z
loop_
_atom_site_aniso_label
_atom_site_aniso_U_11
_atom_site_aniso_U_22
_atom_site_aniso_U_33
_atom_site_aniso_U_12
_atom_site_aniso_U_13
_atom_site_aniso_U_23
Ag 0.03939 0.03977 0.03090 0.04838 0.01925 0.00051
loop_
_atom_site_label
_atom_site_fract_x
_atom_site_fract_y
_atom_site_fract_z
_atom_site_U_iso_or_equiv
Ag 0.24780 0.29730 0.21920 0.03939
As 0.00000 0.00000 0.00000 0.01773
S 0.21190 0.09290 0.37630 0.02381
loop_
_cod_related_entry_id
_cod_related_entry_database
_cod_related_entry_code
1 AMCSD 0014939
