#------------------------------------------------------------------------------
#$Date: 2023-05-10 20:44:19 +0300 (Wed, 10 May 2023) $
#$Revision: 283658 $
#$URL: file:///home/coder/svn-repositories/cod/cif/9/00/91/9009150.cif $
#------------------------------------------------------------------------------
#
# This file is available in the Crystallography Open Database (COD),
# http://www.crystallography.net/. The original data for this entry
# were provided the American Mineralogist Crystal Structure Database,
# http://rruff.geo.arizona.edu/AMS/amcsd.php
#
# The file may be used within the scientific community so long as
# proper attribution is given to the journal article from which the
# data were obtained.
#
data_9009150
loop_
_publ_author_name
'Wyckoff, R. W. G.'
_publ_section_title
;
 Second edition. Interscience Publishers, New York, New York
;
_journal_name_full               'Crystal Structures'
_journal_page_first              282
_journal_page_last               287
_journal_volume                  1
_journal_year                    1963
_chemical_formula_structural     Co(OH)Br
_chemical_formula_sum            'Br Co H O'
_space_group_IT_number           61
_symmetry_space_group_name_Hall  '-P 2bc 2ac'
_symmetry_space_group_name_H-M   'P c a b'
_cell_angle_alpha                90
_cell_angle_beta                 90
_cell_angle_gamma                90
_cell_formula_units_Z            8
_cell_length_a                   5.903
_cell_length_b                   6.700
_cell_length_c                   11.86
_cell_volume                     469.064
_database_code_amcsd             0011829
_exptl_crystal_density_diffrn    4.414
_cod_original_formula_sum        'Co (O Br) H'
_cod_database_code               9009150
_amcsd_formula_title             Co(OH)Br
loop_
_space_group_symop_operation_xyz
x,y,z
x,1/2+y,1/2-z
-x,1/2-y,1/2+z
1/2-x,y,1/2+z
1/2+x,-y,1/2-z
1/2+x,1/2-y,z
1/2-x,1/2+y,-z
-x,-y,-z
loop_
_atom_site_label
_atom_site_fract_x
_atom_site_fract_y
_atom_site_fract_z
_atom_site_type_symbol
_atom_site_attached_hydrogens
Co 0.24500 0.13700 0.00200 Co 0
O-H 0.58000 0.10300 0.06800 O 1
Br 0.57800 0.10100 0.36000 Br 0
loop_
_cod_changelog_entry_id
_cod_changelog_entry_author
_cod_changelog_entry_date
_cod_changelog_entry_text
1
;cod-tools version 3.8.0
Id: cif_guess_AMCSD_atom_types 9574 2023-05-10 09:00:05Z saulius
;
2023-05-10T18:51:25+03:00
;Derived atom types and hydrogen counts
from atom names that follow the AMCSD naming convention
(Wat == water, O-H == hydroxyl).
;
loop_
_cod_related_entry_id
_cod_related_entry_database
_cod_related_entry_code
1 AMCSD 0011829
