#------------------------------------------------------------------------------
#$Date: 2023-11-11 19:50:47 +0200 (Sat, 11 Nov 2023) $
#$Revision: 287550 $
#$URL: file:///home/coder/svn-repositories/cod/cif/9/00/96/9009643.cif $
#------------------------------------------------------------------------------
#
# This file is available in the Crystallography Open Database (COD),
# http://www.crystallography.net/. The original data for this entry
# were provided the American Mineralogist Crystal Structure Database,
# http://rruff.geo.arizona.edu/AMS/amcsd.php
#
# The file may be used within the scientific community so long as
# proper attribution is given to the journal article from which the
# data were obtained.
#
data_9009643
loop_
_publ_author_name
'Idemoto, Y.'
'Richardson, J. W.'
'Koura, N.'
'Kohara, S.'
'Loong, C. K.'
_publ_section_title
;
 Crystal structure of (LixK1-x)2CO3 (x = 0,0.43,0.5,0.62,1)
 by neutron powder diffraction analysis
 Locality: synthetic
 Sample: single crystal X-ray diffraction refinement
 Note: y(O1) changed to match reported bond lengths
;
_journal_name_full               'Journal of Physics and Chemistry of Solids'
_journal_page_first              363
_journal_page_last               376
_journal_paper_doi               10.1016/S0022-3697(97)00209-6
_journal_volume                  59
_journal_year                    1998
_chemical_formula_sum            'C Li2 O3'
_chemical_name_mineral           Zabuyelite
_space_group_crystal_system      monoclinic
_space_group_IT_number           15
_space_group_name_Hall           '-C 2yc'
_space_group_name_H-M_alt        'C 1 2/c 1'
_cell_angle_alpha                90
_cell_angle_beta                 114.83
_cell_angle_gamma                90
_cell_formula_units_Z            4
_cell_length_a                   8.3593
_cell_length_b                   4.9725
_cell_length_c                   6.1975
_cell_volume                     233.795
_exptl_crystal_density_diffrn    2.099
_cod_depositor_comments
;
 Adding the _cell_formula_units_Z data item and updating the space group
 information.

 Antanas Vaitkus,
 2018-01-15
;
_cod_original_formula_sum        'Li2 C O3'
_cod_database_code               9009643
loop_
_space_group_symop_id
_space_group_symop_operation_xyz
1 x,y,z
2 1/2+x,1/2+y,z
3 x,-y,1/2+z
4 1/2+x,1/2-y,1/2+z
5 -x,y,1/2-z
6 1/2-x,1/2+y,1/2-z
7 -x,-y,-z
8 1/2-x,1/2-y,-z
loop_
_atom_site_aniso_label
_atom_site_aniso_U_11
_atom_site_aniso_U_22
_atom_site_aniso_U_33
_atom_site_aniso_U_12
_atom_site_aniso_U_13
_atom_site_aniso_U_23
Li 0.01545 0.01741 0.01779 0.00134 0.00735 0.00156
C 0.01021 0.01177 0.00817 0.00000 0.00411 0.00000
O1 0.01370 0.00752 0.03109 0.00000 0.00800 0.00000
O2 0.01079 0.01215 0.01635 0.00306 0.00519 0.00142
loop_
_atom_site_label
_atom_site_fract_x
_atom_site_fract_y
_atom_site_fract_z
Li 0.19650 0.44840 0.83440
C 0.00000 0.06570 0.25000
O1 0.00000 0.32130 0.25000
O2 0.14590 -0.06350 0.31270
_database_code_amcsd 0013248
