#------------------------------------------------------------------------------
#$Date: 2023-03-26 11:09:57 +0300 (Sun, 26 Mar 2023) $
#$Revision: 282068 $
#$URL: file:///home/coder/svn-repositories/cod/cif/9/00/91/9009196.cif $
#------------------------------------------------------------------------------
#
# This file is available in the Crystallography Open Database (COD),
# http://www.crystallography.net/. The original data for this entry
# were provided the American Mineralogist Crystal Structure Database,
# http://rruff.geo.arizona.edu/AMS/amcsd.php
#
# The file may be used within the scientific community so long as
# proper attribution is given to the journal article from which the
# data were obtained.
#
data_9009196
loop_
_publ_author_name
'Wyckoff, R. W. G.'
_publ_section_title
;
 Second edition. Interscience Publishers, New York, New York
;
_journal_name_full               'Crystal Structures'
_journal_page_first              298
_journal_page_last               306
_journal_volume                  1
_journal_year                    1963
_chemical_formula_structural     PbBr2
_chemical_formula_sum            'Br2 Pb'
_space_group_IT_number           62
_symmetry_space_group_name_Hall  '-P 2c 2ab'
_symmetry_space_group_name_H-M   'P b n m'
_cell_angle_alpha                90
_cell_angle_beta                 90
_cell_angle_gamma                90
_cell_length_a                   9.466
_cell_length_b                   8.068
_cell_length_c                   4.767
_cell_volume                     364.064
_database_code_amcsd             0011875
_exptl_crystal_density_diffrn    6.696
_cod_original_formula_sum        'Pb Br2'
_cod_database_code               9009196
_amcsd_formula_title             PbBr2
loop_
_space_group_symop_operation_xyz
x,y,z
x,y,1/2-z
-x,-y,1/2+z
1/2+x,1/2-y,1/2+z
1/2-x,1/2+y,1/2-z
1/2-x,1/2+y,z
1/2+x,1/2-y,-z
-x,-y,-z
loop_
_atom_site_label
_atom_site_fract_x
_atom_site_fract_y
_atom_site_fract_z
Pb 0.08700 0.26500 0.25000
Br1 0.07000 0.86000 0.25000
Br2 0.83000 0.48000 0.25000
loop_
_cod_related_entry_id
_cod_related_entry_database
_cod_related_entry_code
1 AMCSD 0011875
