#------------------------------------------------------------------------------
#$Date: 2023-03-26 11:09:57 +0300 (Sun, 26 Mar 2023) $
#$Revision: 282068 $
#$URL: file:///home/coder/svn-repositories/cod/cif/9/00/98/9009838.cif $
#------------------------------------------------------------------------------
#
# This file is available in the Crystallography Open Database (COD),
# http://www.crystallography.net/. The original data for this entry
# were provided the American Mineralogist Crystal Structure Database,
# http://rruff.geo.arizona.edu/AMS/amcsd.php
#
# The file may be used within the scientific community so long as
# proper attribution is given to the journal article from which the
# data were obtained.
#
data_9009838
loop_
_publ_author_name
'Miletich, R.'
_publ_section_title
;
 Copper-substituted manganese-denningites,
 Mn(Mn1-xCux)(Te2O5)2(0<=x<=1): synthesis and crystal chemistry
 Sample: x = 0.80
;
_journal_name_full               'Mineralogy and Petrology'
_journal_page_first              129
_journal_page_last               145
_journal_paper_doi               10.1007/BF01163092
_journal_volume                  48
_journal_year                    1993
_chemical_compound_source        Synthetic
_chemical_formula_sum            'Cu0.8 Mn1.2 O10 Te4'
_chemical_name_mineral           Denningite
_space_group_IT_number           133
_symmetry_space_group_name_Hall  '-P 4ac 2b'
_symmetry_space_group_name_H-M   'P 42/n b c :2'
_cell_angle_alpha                90
_cell_angle_beta                 90
_cell_angle_gamma                90
_cell_length_a                   8.729
_cell_length_b                   8.729
_cell_length_c                   12.820
_cell_volume                     976.826
_database_code_amcsd             0014629
_exptl_crystal_density_diffrn    5.352
_cod_original_sg_symbol_H-M      'P 42/n b c'
_cod_original_formula_sum        'Mn1.2 Cu.8 Te4 O10'
_cod_database_code               9009838
loop_
_space_group_symop_operation_xyz
x,y,z
-y,-x,1/2+z
y,x,1/2-z
1/2+y,-x,1/2-z
1/2-y,x,1/2+z
1/2+x,-y,z
1/2-x,y,-z
1/2+x,1/2+y,-z
1/2-x,1/2-y,z
1/2+y,1/2+x,1/2+z
1/2-y,1/2-x,1/2-z
-y,1/2+x,1/2-z
y,1/2-x,1/2+z
-x,1/2+y,z
x,1/2-y,-z
-x,-y,-z
loop_
_atom_site_aniso_label
_atom_site_aniso_U_11
_atom_site_aniso_U_22
_atom_site_aniso_U_33
_atom_site_aniso_U_12
_atom_site_aniso_U_13
_atom_site_aniso_U_23
Mn 0.01320 0.01470 0.01200 0.00000 0.00000 0.00000
MnMe 0.01770 0.01770 0.01150 -0.00550 0.00000 0.00000
CuMe 0.01770 0.01770 0.01150 -0.00550 0.00000 0.00000
Te 0.01270 0.01270 0.01170 0.00060 0.00010 0.00120
O1 0.01200 0.02070 0.01640 -0.00090 0.00070 -0.00160
O2 0.02510 0.01100 0.01350 0.00180 0.00050 0.00090
O3 0.03040 0.03040 0.01190 -0.01190 -0.00620 0.00620
loop_
_atom_site_label
_atom_site_fract_x
_atom_site_fract_y
_atom_site_fract_z
_atom_site_occupancy
Mn 0.25000 0.25000 0.00000 1.00000
MnMe 0.25000 0.25000 0.25000 0.20000
CuMe 0.25000 0.25000 0.25000 0.80000
Te 0.03844 0.56686 0.38215 1.00000
O1 0.17020 0.10910 0.36290 1.00000
O2 0.02110 0.37700 0.45180 1.00000
O3 0.55130 0.55130 0.25000 1.00000
loop_
_cod_related_entry_id
_cod_related_entry_database
_cod_related_entry_code
1 AMCSD 0014629
