#------------------------------------------------------------------------------
#$Date: 2023-03-26 11:09:57 +0300 (Sun, 26 Mar 2023) $
#$Revision: 282068 $
#$URL: file:///home/coder/svn-repositories/cod/cif/9/00/91/9009191.cif $
#------------------------------------------------------------------------------
#
# This file is available in the Crystallography Open Database (COD),
# http://www.crystallography.net/. The original data for this entry
# were provided the American Mineralogist Crystal Structure Database,
# http://rruff.geo.arizona.edu/AMS/amcsd.php
#
# The file may be used within the scientific community so long as
# proper attribution is given to the journal article from which the
# data were obtained.
#
data_9009191
loop_
_publ_author_name
'Wyckoff, R. W. G.'
_publ_section_title
;
 Second edition. Interscience Publishers, New York, New York
;
_journal_name_full               'Crystal Structures'
_journal_page_first              296
_journal_page_last               298
_journal_volume                  1
_journal_year                    1963
_chemical_formula_structural     FeOCl
_chemical_formula_sum            'Cl Fe O'
_space_group_IT_number           59
_symmetry_space_group_name_Hall  'P 2 2ab -1ab'
_symmetry_space_group_name_H-M   'P m m n :1'
_cell_angle_alpha                90
_cell_angle_beta                 90
_cell_angle_gamma                90
_cell_length_a                   3.75
_cell_length_b                   3.3
_cell_length_c                   7.65
_cell_volume                     94.669
_database_code_amcsd             0011870
_exptl_crystal_density_diffrn    3.764
_cod_original_sg_symbol_H-M      'P m m n'
_cod_original_formula_sum        'Fe O Cl'
_cod_database_code               9009191
_amcsd_formula_title             FeOCl
loop_
_space_group_symop_operation_xyz
x,y,z
x,-y,z
1/2-x,1/2+y,-z
-x,y,z
1/2+x,1/2-y,-z
1/2+x,1/2+y,-z
-x,-y,z
1/2-x,1/2-y,-z
loop_
_atom_site_label
_atom_site_fract_x
_atom_site_fract_y
_atom_site_fract_z
Fe 0.00000 0.50000 0.09700
O 0.00000 0.00000 -0.08300
Cl 0.00000 0.00000 0.30500
loop_
_cod_related_entry_id
_cod_related_entry_database
_cod_related_entry_code
1 AMCSD 0011870
