#------------------------------------------------------------------------------
#$Date: 2023-11-10 21:21:08 +0200 (Fri, 10 Nov 2023) $
#$Revision: 287519 $
#$URL: file:///home/coder/svn-repositories/cod/cif/9/00/97/9009755.cif $
#------------------------------------------------------------------------------
#
# This file is available in the Crystallography Open Database (COD),
# http://www.crystallography.net/. The original data for this entry
# were provided the American Mineralogist Crystal Structure Database,
# http://rruff.geo.arizona.edu/AMS/amcsd.php
#
# The file may be used within the scientific community so long as
# proper attribution is given to the journal article from which the
# data were obtained.
#
data_9009755
loop_
_publ_author_name
'Lafontaine, M. A.'
'LeBail, A.'
'Ferey, G.'
_publ_section_title
;
 Copper-containing minerals - I. Cu3V2O7(OH)2,2H2O: The synthetic homolog
 of volborthite; crystal structure determination from X-ray and neutron data;
 structural correlations
 Note: neutron data on a synthetic sample
;
_journal_name_full               'Journal of Solid State Chemistry'
_journal_page_first              220
_journal_page_last               227
_journal_paper_doi               10.1016/S0022-4596(05)80078-7
_journal_volume                  85
_journal_year                    1990
_chemical_formula_sum            'Cu3 H6 O11 V2'
_chemical_name_mineral           Volborthite
_space_group_IT_number           12
_symmetry_space_group_name_Hall  '-C 2y'
_symmetry_space_group_name_H-M   'C 1 2/m 1'
_cell_angle_alpha                90
_cell_angle_beta                 94.88
_cell_angle_gamma                90
_cell_formula_units_Z            2
_cell_length_a                   10.607
_cell_length_b                   5.864
_cell_length_c                   7.214
_cell_volume                     447.080
_exptl_crystal_density_diffrn    3.525
_cod_original_formula_sum        'Cu3 V2 O11 H6'
_cod_database_code               9009755
loop_
_symmetry_equiv_pos_as_xyz
x,y,z
1/2+x,1/2+y,z
x,-y,z
1/2+x,1/2-y,z
-x,y,-z
1/2-x,1/2+y,-z
-x,-y,-z
1/2-x,1/2-y,-z
loop_
_atom_site_label
_atom_site_fract_x
_atom_site_fract_y
_atom_site_fract_z
_atom_site_U_iso_or_equiv
_atom_site_type_symbol
_atom_site_attached_hydrogens
Cu1 0.00000 0.00000 0.00000 0.01292 Cu 0
Cu2 0.25000 0.25000 0.00000 0.01292 Cu 0
V 0.99590 0.50000 0.25160 0.00697 V 0
O1 0.00000 0.50000 0.50000 0.01900 O 0
O2 0.34280 0.50000 0.10950 0.01900 O 0
O3 0.07560 0.26350 0.18640 0.01900 O 0
O4 0.16220 0.50000 0.83810 0.01900 O 0
Ow 0.32230 0.50000 0.48940 0.01900 O 0
H1 0.35010 0.50000 0.23760 0.07219 H 0
H2 0.35360 0.37140 0.56390 0.07219 H 0
loop_
_cod_changelog_entry_id
_cod_changelog_entry_author
_cod_changelog_entry_date
_cod_changelog_entry_text
1
;cod-tools version 3.8.0
Id: cif_guess_AMCSD_atom_types 9581 2023-05-17 12:35:41Z saulius
;
2023-05-18T08:43:06+03:00
;Derived atom types and hydrogen counts
from atom names that follow the AMCSD naming convention
(Wat == water, O-H == hydroxyl).
;
_cod_duplicate_entry 1000138
