#------------------------------------------------------------------------------
#$Date: 2023-03-26 11:09:57 +0300 (Sun, 26 Mar 2023) $
#$Revision: 282068 $
#$URL: file:///home/coder/svn-repositories/cod/cif/9/01/02/9010236.cif $
#------------------------------------------------------------------------------
#
# This file is available in the Crystallography Open Database (COD),
# http://www.crystallography.net/. The original data for this entry
# were provided the American Mineralogist Crystal Structure Database,
# http://rruff.geo.arizona.edu/AMS/amcsd.php
#
# The file may be used within the scientific community so long as
# proper attribution is given to the journal article from which the
# data were obtained.
#
data_9010236
loop_
_publ_author_name
'Bindi, L.'
'Evain, M.'
_publ_section_title
;
 Gram-Charlier development of the atomic displacement factors into mineral
 structures: The case of samsonite, Ag4MnSb2S6
 Sample: T = 300 K
;
_journal_name_full               'American Mineralogist'
_journal_page_first              886
_journal_page_last               891
_journal_paper_doi               10.2138/am.2007.2364
_journal_volume                  92
_journal_year                    2007
_chemical_compound_source        'St. Andreasberg, Hartz Mountains, Germany'
_chemical_formula_sum            'Ag4 Mn S6 Sb2'
_chemical_name_mineral           Samsonite
_space_group_IT_number           14
_symmetry_space_group_name_Hall  '-P 2yn'
_symmetry_space_group_name_H-M   'P 1 21/n 1'
_cell_angle_alpha                90
_cell_angle_beta                 92.639
_cell_angle_gamma                90
_cell_length_a                   10.3861
_cell_length_b                   8.1108
_cell_length_c                   6.6630
_cell_volume                     560.693
_database_code_amcsd             0004357
_diffrn_ambient_temperature      300
_exptl_crystal_density_diffrn    5.463
_cod_original_formula_sum        'Ag4 Mn Sb2 S6'
_cod_database_code               9010236
loop_
_space_group_symop_operation_xyz
x,y,z
1/2+x,1/2-y,1/2+z
1/2-x,1/2+y,1/2-z
-x,-y,-z
loop_
_atom_site_aniso_label
_atom_site_aniso_U_11
_atom_site_aniso_U_22
_atom_site_aniso_U_33
_atom_site_aniso_U_12
_atom_site_aniso_U_13
_atom_site_aniso_U_23
Ag1 0.03112 0.07040 0.02837 -0.01957 0.00785 -0.00721
Ag2 0.11050 0.03020 0.04760 -0.03480 0.00560 -0.01010
Mn 0.01680 0.01780 0.01570 0.00050 0.00148 0.00025
Sb 0.01591 0.01611 0.01541 0.00237 0.00141 0.00059
S1 0.01970 0.01460 0.01470 0.00090 0.00230 0.00100
S2 0.01540 0.01840 0.01390 0.00080 0.00080 0.00180
S3 0.01570 0.01670 0.02190 -0.00290 0.00080 0.00190
loop_
_atom_site_label
_atom_site_fract_x
_atom_site_fract_y
_atom_site_fract_z
_atom_site_U_iso_or_equiv
Ag1 0.30710 0.24815 0.57129 0.04309
Ag2 0.49587 0.97000 0.76079 0.06270
Mn 0.00000 0.00000 0.50000 0.01673
Sb 0.18404 0.16448 0.03847 0.01579
S1 0.09171 0.26901 0.34369 0.01627
S2 0.51791 0.67354 0.66932 0.01590
S3 0.26400 0.42128 -0.11123 0.01807
loop_
_cod_related_entry_id
_cod_related_entry_database
_cod_related_entry_code
1 AMCSD 0004357
