#------------------------------------------------------------------------------
#$Date: 2023-03-26 11:09:57 +0300 (Sun, 26 Mar 2023) $
#$Revision: 282068 $
#$URL: file:///home/coder/svn-repositories/cod/cif/9/01/09/9010922.cif $
#------------------------------------------------------------------------------
#
# This file is available in the Crystallography Open Database (COD),
# http://www.crystallography.net/. The original data for this entry
# were provided the American Mineralogist Crystal Structure Database,
# http://rruff.geo.arizona.edu/AMS/amcsd.php
#
# The file may be used within the scientific community so long as
# proper attribution is given to the journal article from which the
# data were obtained.
#
data_9010922
loop_
_publ_author_name
'Olsen, L. A.'
'Balic-Zunic T'
'Makovicky, E.'
'Ullrich, A.'
'Miletich, R.'
_publ_section_title
;
 Hydrostatic compression of galenobismutite (PbBi2S4): elastic properties and
 high-pressure crystal chemistry
 Sample: P = 4.78 GPa
;
_journal_name_full               'Physics and Chemistry of Minerals'
_journal_page_first              467
_journal_page_last               475
_journal_paper_doi               10.1007/s00269-007-0163-9
_journal_volume                  34
_journal_year                    2007
_chemical_compound_source        Synthetic
_chemical_formula_sum            'Bi2 Pb S4'
_chemical_name_mineral           Galenobismutite
_space_group_IT_number           62
_symmetry_space_group_name_Hall  '-P 2c 2n'
_symmetry_space_group_name_H-M   'P n a m'
_cell_angle_alpha                90
_cell_angle_beta                 90
_cell_angle_gamma                90
_cell_length_a                   11.4828
_cell_length_b                   14.1434
_cell_length_c                   3.9787
_cell_volume                     646.164
_database_code_amcsd             0009092
_diffrn_ambient_pressure         4.78e+06
_exptl_crystal_density_diffrn    7.745
_cod_database_code               9010922
loop_
_space_group_symop_operation_xyz
x,y,z
x,y,1/2-z
-x,-y,1/2+z
1/2-x,1/2+y,1/2+z
1/2+x,1/2-y,1/2-z
1/2+x,1/2-y,z
1/2-x,1/2+y,-z
-x,-y,-z
loop_
_atom_site_label
_atom_site_fract_x
_atom_site_fract_y
_atom_site_fract_z
_atom_site_U_iso_or_equiv
Bi1 0.06329 0.39157 0.25000 0.01340
Bi2 0.10981 0.90749 0.25000 0.01480
Pb 0.25780 0.65187 0.25000 0.01790
S1 0.33030 0.01750 0.25000 0.01200
S2 0.26030 0.29700 0.25000 0.01500
S3 0.05370 0.09650 0.25000 0.01100
S4 0.02070 0.71340 0.25000 0.01200
loop_
_cod_related_entry_id
_cod_related_entry_database
_cod_related_entry_code
1 AMCSD 0009092
