#------------------------------------------------------------------------------
#$Date: 2023-03-26 11:09:57 +0300 (Sun, 26 Mar 2023) $
#$Revision: 282068 $
#$URL: file:///home/coder/svn-repositories/cod/cif/9/01/03/9010302.cif $
#------------------------------------------------------------------------------
#
# This file is available in the Crystallography Open Database (COD),
# http://www.crystallography.net/. The original data for this entry
# were provided the American Mineralogist Crystal Structure Database,
# http://rruff.geo.arizona.edu/AMS/amcsd.php
#
# The file may be used within the scientific community so long as
# proper attribution is given to the journal article from which the
# data were obtained.
#
data_9010302
loop_
_publ_author_name
'Gatta, G. D.'
'Angel, R. J.'
_publ_section_title
;
 Elastic behavior and pressure-induced structural evolution of nepheline:
 Implications for the nature of the modulated superstructure
 Sample: P = 1.967 GPa
;
_journal_name_full               'American Mineralogist'
_journal_page_first              1446
_journal_page_last               1455
_journal_paper_doi               10.2138/am.2007.2501
_journal_volume                  92
_journal_year                    2007
_chemical_compound_source
'intrusive aplite of Snipe River, Tambani, Nyasaland, Malawi'
_chemical_formula_sum            'Al4 Ca0.03 K0.54 Na3.24 O16 Si4'
_chemical_name_mineral           Nepheline
_space_group_IT_number           173
_symmetry_space_group_name_Hall  'P 6c'
_symmetry_space_group_name_H-M   'P 63'
_cell_angle_alpha                90
_cell_angle_beta                 90
_cell_angle_gamma                120
_cell_length_a                   9.8499
_cell_length_b                   9.8499
_cell_length_c                   8.2838
_cell_volume                     696.023
_database_code_amcsd             0004424
_diffrn_ambient_pressure         1.967e+06
_exptl_crystal_density_diffrn    2.734
_cod_original_formula_sum        'K.54 Na3.24 Ca.03 Al4 Si4 O16'
_cod_database_code               9010302
loop_
_space_group_symop_operation_xyz
x,y,z
x-y,x,1/2+z
-y,x-y,z
-x,-y,1/2+z
-x+y,-x,z
y,-x+y,1/2+z
loop_
_atom_site_label
_atom_site_fract_x
_atom_site_fract_y
_atom_site_fract_z
_atom_site_occupancy
_atom_site_U_iso_or_equiv
K 0.00000 0.00000 0.00290 0.54000 0.02680
NaK 0.00000 0.00000 0.00290 0.24000 0.02680
CaK 0.00000 0.00000 0.00290 0.03000 0.02680
Na 0.55578 0.99782 0.50660 1.00000 0.02170
AlT1 0.66667 0.33333 0.70490 1.00000 0.00960
SiT2 0.66667 0.33333 0.31070 1.00000 0.01130
SiT3 0.91197 0.66799 0.82507 1.00000 0.00920
AlT4 0.91316 0.67064 0.19626 1.00000 0.01140
O1 0.66210 0.29620 0.50110 0.33333 0.02380
O2 0.98771 0.69126 0.00550 1.00000 0.02050
O3 0.82930 0.47474 0.23100 1.00000 0.02220
O4 0.84320 0.48988 0.75510 1.00000 0.02440
O5 0.77506 0.71427 0.83020 1.00000 0.01380
O6 0.78150 0.73750 0.19410 1.00000 0.02120
loop_
_cod_related_entry_id
_cod_related_entry_database
_cod_related_entry_code
1 AMCSD 0004424
