#------------------------------------------------------------------------------
#$Date: 2023-03-26 11:09:57 +0300 (Sun, 26 Mar 2023) $
#$Revision: 282068 $
#$URL: file:///home/coder/svn-repositories/cod/cif/9/01/08/9010884.cif $
#------------------------------------------------------------------------------
#
# This file is available in the Crystallography Open Database (COD),
# http://www.crystallography.net/. The original data for this entry
# were provided the American Mineralogist Crystal Structure Database,
# http://rruff.geo.arizona.edu/AMS/amcsd.php
#
# The file may be used within the scientific community so long as
# proper attribution is given to the journal article from which the
# data were obtained.
#
data_9010884
loop_
_publ_author_name
'Friedrich, A.'
'Wilson, D. J.'
'Haussuhl, E.'
'Winkler, B.'
'Morgenroth, W.'
'Refson, K.'
'Milman, V.'
_publ_section_title
;
 High-pressure properties of diaspore, AlO(OH)
 Sample: p = 4.89 GPa
;
_journal_name_full               'Physics and Chemistry of Minerals'
_journal_page_first              145
_journal_page_last               157
_journal_paper_doi               10.1007/s00269-006-0135-5
_journal_volume                  34
_journal_year                    2007
_chemical_formula_sum            'Al H O2'
_chemical_name_mineral           Diaspore
_space_group_IT_number           62
_symmetry_space_group_name_Hall  '-P 2c 2ab'
_symmetry_space_group_name_H-M   'P b n m'
_cell_angle_alpha                90
_cell_angle_beta                 90
_cell_angle_gamma                90
_cell_length_a                   4.335
_cell_length_b                   9.34
_cell_length_c                   2.820
_cell_volume                     114.179
_database_code_amcsd             0009054
_exptl_crystal_density_diffrn    3.490
_cod_original_formula_sum        'Al O2 H'
_cod_database_code               9010884
loop_
_space_group_symop_operation_xyz
x,y,z
x,y,1/2-z
-x,-y,1/2+z
1/2+x,1/2-y,1/2+z
1/2-x,1/2+y,1/2-z
1/2-x,1/2+y,z
1/2+x,1/2-y,-z
-x,-y,-z
loop_
_atom_site_label
_atom_site_fract_x
_atom_site_fract_y
_atom_site_fract_z
_atom_site_U_iso_or_equiv
Al 0.04510 0.85630 0.25000 0.00400
O1 0.70800 0.19800 0.25000 0.00400
O2 0.20100 0.05300 0.25000 0.00400
H 0.39000 0.10000 0.25000 0.05000
loop_
_cod_related_entry_id
_cod_related_entry_database
_cod_related_entry_code
1 AMCSD 0009054
