#------------------------------------------------------------------------------
#$Date: 2023-03-26 11:09:57 +0300 (Sun, 26 Mar 2023) $
#$Revision: 282068 $
#$URL: file:///home/coder/svn-repositories/cod/cif/9/01/03/9010375.cif $
#------------------------------------------------------------------------------
#
# This file is available in the Crystallography Open Database (COD),
# http://www.crystallography.net/. The original data for this entry
# were provided the American Mineralogist Crystal Structure Database,
# http://rruff.geo.arizona.edu/AMS/amcsd.php
#
# The file may be used within the scientific community so long as
# proper attribution is given to the journal article from which the
# data were obtained.
#
data_9010375
loop_
_publ_author_name
'McCarthy, A. C.'
'Downs, R. T.'
'Thompson, R. M.'
_publ_section_title
;
 Compressibility trends of the clinopyroxenes, and in-situ high-pressure
 single-crystal X-ray diffraction study of jadeite
 Sample: P = 3.40 GPa
;
_journal_name_full               'American Mineralogist'
_journal_page_first              198
_journal_page_last               209
_journal_paper_doi               10.2138/am.2008.2521
_journal_volume                  93
_journal_year                    2008
_chemical_compound_source        'Clear Creek, San Benito County, California'
_chemical_formula_sum            'Al Na O6 Si2'
_chemical_name_mineral           Jadeite
_space_group_IT_number           15
_symmetry_space_group_name_Hall  '-C 2yc'
_symmetry_space_group_name_H-M   'C 1 2/c 1'
_cell_angle_alpha                90
_cell_angle_beta                 107.285
_cell_angle_gamma                90
_cell_length_a                   9.3372
_cell_length_b                   8.4966
_cell_length_c                   5.1805
_cell_volume                     392.431
_database_code_amcsd             0004507
_diffrn_ambient_pressure         3.4e+06
_exptl_crystal_density_diffrn    3.421
_cod_original_formula_sum        'Na Al Si2 O6'
_cod_database_code               9010375
loop_
_space_group_symop_operation_xyz
x,y,z
1/2+x,1/2+y,z
x,-y,1/2+z
1/2+x,1/2-y,1/2+z
-x,y,1/2-z
1/2-x,1/2+y,1/2-z
-x,-y,-z
1/2-x,1/2-y,-z
loop_
_atom_site_label
_atom_site_fract_x
_atom_site_fract_y
_atom_site_fract_z
_atom_site_U_iso_or_equiv
NaM2 0.00000 0.30210 0.25000 0.01634
AlM1 0.00000 0.90720 0.25000 0.00912
Si 0.29120 0.09410 0.22840 0.00849
O1 0.10850 0.07880 0.12880 0.00937
O2 0.36060 0.26500 0.29750 0.01165
O3 0.35500 0.00870 0.00370 0.01115
loop_
_cod_related_entry_id
_cod_related_entry_database
_cod_related_entry_code
1 AMCSD 0004507
