#------------------------------------------------------------------------------
#$Date: 2023-03-26 11:09:57 +0300 (Sun, 26 Mar 2023) $
#$Revision: 282068 $
#$URL: file:///home/coder/svn-repositories/cod/cif/9/01/03/9010360.cif $
#------------------------------------------------------------------------------
#
# This file is available in the Crystallography Open Database (COD),
# http://www.crystallography.net/. The original data for this entry
# were provided the American Mineralogist Crystal Structure Database,
# http://rruff.geo.arizona.edu/AMS/amcsd.php
#
# The file may be used within the scientific community so long as
# proper attribution is given to the journal article from which the
# data were obtained.
#
data_9010360
loop_
_publ_author_name
'Martin, C. D.'
'Smith, R. I.'
'Marshall, W. G.'
'Parise, J. B.'
_publ_section_title
;
 High-pressure structure and bonding in CaIrO3: the structure model of MgSiO3
 post-perovskite investigated with time-of-flight neutron powder diffraction
 Sample: P = 9.72 GPa, room temp
;
_journal_name_full               'American Mineralogist'
_journal_page_first              1912
_journal_page_last               1918
_journal_paper_doi               10.2138/am.2007.2585
_journal_volume                  92
_journal_year                    2007
_chemical_formula_structural     CaIrO3
_chemical_formula_sum            'Ca Ir O3'
_space_group_IT_number           36
_symmetry_space_group_name_Hall  'C 2c -2'
_symmetry_space_group_name_H-M   'C m c 21'
_cell_angle_alpha                90
_cell_angle_beta                 90
_cell_angle_gamma                90
_cell_length_a                   3.1010
_cell_length_b                   9.6588
_cell_length_c                   7.2111
_cell_volume                     215.986
_database_code_amcsd             0004482
_diffrn_ambient_pressure         9.72e+06
_exptl_crystal_density_diffrn    8.620
_cod_database_code               9010360
_amcsd_formula_title             CaIrO3
loop_
_space_group_symop_operation_xyz
x,y,z
1/2+x,1/2+y,z
x,-y,1/2+z
1/2+x,1/2-y,1/2+z
-x,y,z
1/2-x,1/2+y,z
-x,-y,1/2+z
1/2-x,1/2-y,1/2+z
loop_
_atom_site_label
_atom_site_fract_x
_atom_site_fract_y
_atom_site_fract_z
_atom_site_U_iso_or_equiv
Ca 0.00000 0.24670 -0.00510 0.01090
Ir 0.00000 0.00460 0.24180 0.00730
O1 0.00000 0.92280 -0.00880 0.01050
O2 0.00000 0.63040 0.18680 0.01050
O3 0.00000 0.62890 0.78760 0.01050
loop_
_cod_related_entry_id
_cod_related_entry_database
_cod_related_entry_code
1 AMCSD 0004482
