#------------------------------------------------------------------------------
#$Date: 2023-03-26 11:09:57 +0300 (Sun, 26 Mar 2023) $
#$Revision: 282068 $
#$URL: file:///home/coder/svn-repositories/cod/cif/9/01/07/9010764.cif $
#------------------------------------------------------------------------------
#
# This file is available in the Crystallography Open Database (COD),
# http://www.crystallography.net/. The original data for this entry
# were provided the American Mineralogist Crystal Structure Database,
# http://rruff.geo.arizona.edu/AMS/amcsd.php
#
# The file may be used within the scientific community so long as
# proper attribution is given to the journal article from which the
# data were obtained.
#
data_9010764
loop_
_publ_author_name
'Heinemann, R.'
'Kroll, H.'
'Kirfel, A.'
'Barbier, B.'
_publ_section_title
;
 Order and anti-order in olivine I: structural response to temperature
 Sample: Bo-2, T = 852 C
;
_journal_name_full               'European Journal of Mineralogy'
_journal_page_first              673
_journal_page_last               689
_journal_paper_doi               10.1127/0935-1221/2006/0018-0673
_journal_volume                  18
_journal_year                    2006
_chemical_compound_source        'Boseti volcano, Ethiopia'
_chemical_formula_sum            'Fe0.935 Mg1.065 O4 Si'
_chemical_name_mineral           Forsterite
_space_group_IT_number           62
_symmetry_space_group_name_Hall  '-P 2c 2ab'
_symmetry_space_group_name_H-M   'P b n m'
_cell_angle_alpha                90
_cell_angle_beta                 90
_cell_angle_gamma                90
_cell_length_a                   4.8325
_cell_length_b                   10.4552
_cell_length_c                   6.1128
_cell_volume                     308.848
_database_code_amcsd             0007178
_diffrn_ambient_temperature      1125.15
_exptl_crystal_density_diffrn    3.660
_cod_original_formula_sum        '(Fe.935 Mg1.065) Si O4'
_cod_database_code               9010764
loop_
_space_group_symop_operation_xyz
x,y,z
x,y,1/2-z
-x,-y,1/2+z
1/2+x,1/2-y,1/2+z
1/2-x,1/2+y,1/2-z
1/2-x,1/2+y,z
1/2+x,1/2-y,-z
-x,-y,-z
loop_
_atom_site_aniso_label
_atom_site_aniso_U_11
_atom_site_aniso_U_22
_atom_site_aniso_U_33
_atom_site_aniso_U_12
_atom_site_aniso_U_13
_atom_site_aniso_U_23
FeM1 0.02120 0.03640 0.02320 -0.00040 -0.00260 -0.00500
MgM1 0.02120 0.03640 0.02320 -0.00040 -0.00260 -0.00500
FeM2 0.02770 0.02060 0.02480 0.00060 0.00000 0.00000
MgM2 0.02770 0.02060 0.02480 0.00060 0.00000 0.00000
Si 0.01280 0.01830 0.01900 0.00040 0.00000 0.00000
O1 0.01400 0.03010 0.02480 0.00050 0.00000 0.00000
O2 0.02270 0.01730 0.02660 -0.00020 0.00000 0.00000
O3 0.02300 0.02960 0.02350 0.00140 -0.00060 0.00770
loop_
_atom_site_label
_atom_site_fract_x
_atom_site_fract_y
_atom_site_fract_z
_atom_site_occupancy
FeM1 0.00000 0.00000 0.00000 0.51760
MgM1 0.00000 0.00000 0.00000 0.48240
FeM2 0.98886 0.28014 0.25000 0.41750
MgM2 0.98886 0.28014 0.25000 0.58250
Si 0.42863 0.09596 0.25000 1.00000
O1 0.76340 0.09280 0.25000 1.00000
O2 0.21510 0.45200 0.25000 1.00000
O3 0.28590 0.16370 0.03740 1.00000
loop_
_cod_related_entry_id
_cod_related_entry_database
_cod_related_entry_code
1 AMCSD 0007178
