#------------------------------------------------------------------------------
#$Date: 2023-11-11 15:25:56 +0200 (Sat, 11 Nov 2023) $
#$Revision: 287548 $
#$URL: file:///home/coder/svn-repositories/cod/cif/9/01/03/9010307.cif $
#------------------------------------------------------------------------------
#
# This file is available in the Crystallography Open Database (COD),
# http://www.crystallography.net/. The original data for this entry
# were provided the American Mineralogist Crystal Structure Database,
# http://rruff.geo.arizona.edu/AMS/amcsd.php
#
# The file may be used within the scientific community so long as
# proper attribution is given to the journal article from which the
# data were obtained.
#
data_9010307
loop_
_publ_author_name
'Basciano, L. C.'
'Peterson, R. C.'
_publ_section_title
;
 Jarosite - hydronium jarosite solid solution series with
 full iron occupancy: Mineralogy and crystal chemistry
 Locality: synthetic
 Sample: A
;
_journal_name_full               'American Mineralogist'
_journal_page_first              1464
_journal_page_last               1473
_journal_paper_doi               10.2138/am.2007.2432
_journal_volume                  92
_journal_year                    2007
_chemical_formula_sum            'Fe3 H6.92 O14 S2'
_chemical_name_mineral           'Hydronium jarosite'
_space_group_IT_number           166
_symmetry_space_group_name_Hall  '-R 3 2"'
_symmetry_space_group_name_H-M   'R -3 m :H'
_cell_angle_alpha                90
_cell_angle_beta                 90
_cell_angle_gamma                120
_cell_length_a                   7.3552
_cell_length_b                   7.3552
_cell_length_c                   16.9945
_cell_volume                     796.211
_exptl_crystal_density_diffrn    2.895
_cell_formula_units_Z            3
_cod_depositor_comments
;
       Z value inserted to be consistent with given formula.
                           miguel.
;
_cod_original_sg_symbol_H-M      'R -3 m'
_cod_original_formula_sum        'H6.92 Fe3 S2 O14'
_cod_database_code               9010307
loop_
_symmetry_equiv_pos_as_xyz
x,y,z
2/3+x,1/3+y,1/3+z
1/3+x,2/3+y,2/3+z
x,x-y,z
2/3+x,1/3+x-y,1/3+z
1/3+x,2/3+x-y,2/3+z
y,x,-z
2/3+y,1/3+x,1/3-z
1/3+y,2/3+x,2/3-z
-x+y,y,z
2/3-x+y,1/3+y,1/3+z
1/3-x+y,2/3+y,2/3+z
-x,-x+y,-z
2/3-x,1/3-x+y,1/3-z
1/3-x,2/3-x+y,2/3-z
-y,-x,z
2/3-y,1/3-x,1/3+z
1/3-y,2/3-x,2/3+z
x-y,-y,-z
2/3+x-y,1/3-y,1/3-z
1/3+x-y,2/3-y,2/3-z
y,-x+y,-z
2/3+y,1/3-x+y,1/3-z
1/3+y,2/3-x+y,2/3-z
-x+y,-x,z
2/3-x+y,1/3-x,1/3+z
1/3-x+y,2/3-x,2/3+z
-x,-y,-z
2/3-x,1/3-y,1/3-z
1/3-x,2/3-y,2/3-z
-y,x-y,z
2/3-y,1/3+x-y,1/3+z
1/3-y,2/3+x-y,2/3+z
x-y,x,-z
2/3+x-y,1/3+x,1/3-z
1/3+x-y,2/3+x,2/3-z
loop_
_atom_site_label
_atom_site_fract_x
_atom_site_fract_y
_atom_site_fract_z
_atom_site_occupancy
_atom_site_U_iso_or_equiv
H3O 0.00000 0.00000 0.00000 0.92000 0.04306
Fe 0.16667 -0.16667 -0.16667 1.00000 0.02520
S 0.00000 0.00000 0.30950 1.00000 0.01140
O1 0.00000 0.00000 0.39460 1.00000 0.03293
O2 0.22530 -0.22530 -0.05650 1.00000 0.01900
O3 0.12790 -0.12790 0.13680 1.00000 0.00633
H 0.16300 -0.16300 0.10000 1.00000 0.02533
loop_
_cod_related_entry_id
_cod_related_entry_database
_cod_related_entry_code
1 AMCSD 0004429
2 AMCSD 0004441
loop_
_[local]_alternative_name_id
_[local]_alternative_name_type
_[local]_alternative_name_source
_[local]_alternative_name_source_id
_[local]_alternative_name_value
1 mineral AMCSD 0004429 "Hydronium jarosite"
2 mineral AMCSD 0004441 "Hydroniumjarosite"
_amcsd_database_code 0004429
