#------------------------------------------------------------------------------
#$Date: 2023-11-12 12:37:04 +0200 (Sun, 12 Nov 2023) $
#$Revision: 287555 $
#$URL: file:///home/coder/svn-repositories/cod/cif/9/01/03/9010390.cif $
#------------------------------------------------------------------------------
#
# This file is available in the Crystallography Open Database (COD),
# http://www.crystallography.net/. The original data for this entry
# were provided the American Mineralogist Crystal Structure Database,
# http://rruff.geo.arizona.edu/AMS/amcsd.php
#
# The file may be used within the scientific community so long as
# proper attribution is given to the journal article from which the
# data were obtained.
#
data_9010390
loop_
_publ_author_name
'Komatsu, K.'
'Kagi, H.'
'Marshall, W. G.'
'Kuribayashi, T.'
'Parise, J. B.'
'Kudoh, Y.'
_publ_section_title
;
 Pressure dependence of the hydrogen-bond geometry in topaz-OD from neutron
 powder diffraction
 Locality: synthetic
 Sample: 58 tons, P = 6.2 GPa
;
_journal_name_full               'American Mineralogist'
_journal_page_first              217
_journal_page_last               227
_journal_paper_doi               10.2138/am.2008.2483
_journal_volume                  93
_journal_year                    2008
_chemical_formula_sum            'Al2 D2 O6 Si'
_chemical_name_mineral           'Topaz (deuterated)'
_space_group_IT_number           62
_symmetry_space_group_name_Hall  '-P 2c 2ab'
_symmetry_space_group_name_H-M   'P b n m'
_cell_angle_alpha                90
_cell_angle_beta                 90
_cell_angle_gamma                90
_cell_length_a                   4.6755
_cell_length_b                   8.8410
_cell_length_c                   8.2823
_cell_volume                     342.358
_diffrn_ambient_pressure         6.2e+06
_exptl_crystal_density_diffrn    3.532
_cod_original_formula_sum        'Al2 Si O6 D2'
_cod_database_code               9010390
loop_
_symmetry_equiv_pos_as_xyz
x,y,z
x,y,1/2-z
-x,-y,1/2+z
1/2+x,1/2-y,1/2+z
1/2-x,1/2+y,1/2-z
1/2-x,1/2+y,z
1/2+x,1/2-y,-z
-x,-y,-z
loop_
_atom_site_label
_atom_site_fract_x
_atom_site_fract_y
_atom_site_fract_z
_atom_site_occupancy
_atom_site_U_iso_or_equiv
Al 0.90100 0.13250 0.09000 1.00000 0.00900
Si 0.40500 0.93970 0.25000 1.00000 0.00900
O1 0.71800 0.02510 0.25000 1.00000 0.00950
O2 0.44300 0.75490 0.25000 1.00000 0.00950
O3 0.21400 0.99320 0.09330 1.00000 0.00950
O4 0.59300 0.25430 0.07080 1.00000 0.00950
D1 0.46700 0.18000 0.12400 0.59000 0.06600
D2 0.51000 0.27200 0.17800 0.41000 0.04600
_database_code_amcsd 0004522
