#------------------------------------------------------------------------------
#$Date: 2023-03-26 11:09:57 +0300 (Sun, 26 Mar 2023) $
#$Revision: 282068 $
#$URL: file:///home/coder/svn-repositories/cod/cif/9/01/06/9010696.cif $
#------------------------------------------------------------------------------
#
# This file is available in the Crystallography Open Database (COD),
# http://www.crystallography.net/. The original data for this entry
# were provided the American Mineralogist Crystal Structure Database,
# http://rruff.geo.arizona.edu/AMS/amcsd.php
#
# The file may be used within the scientific community so long as
# proper attribution is given to the journal article from which the
# data were obtained.
#
data_9010696
loop_
_publ_author_name
'Redfern, S. A. T.'
'Henderson, C. M. B.'
'Knight, K. S.'
'Wood, B. J.'
_publ_section_title
;
 High-temperature order-disorder in (Fe0.5Mn0.5)2SiO4 and (Mg0.5Mn0.5)2SiO4
 olivines: an in situ neutron diffraction study
 Sample: T = 500 C, Data collected on cooling
;
_journal_name_full               'European Journal of Mineralogy'
_journal_page_first              287
_journal_page_last               300
_journal_volume                  9
_journal_year                    1997
_chemical_formula_structural     FeMnSiO4
_chemical_formula_sum            'Fe Mn O4 Si'
_space_group_IT_number           62
_symmetry_space_group_name_Hall  '-P 2c 2ab'
_symmetry_space_group_name_H-M   'P b n m'
_cell_angle_alpha                90
_cell_angle_beta                 90
_cell_angle_gamma                90
_cell_length_a                   4.8798
_cell_length_b                   10.6376
_cell_length_c                   6.2060
_cell_volume                     322.149
_database_code_amcsd             0006674
_diffrn_ambient_temperature      773.15
_exptl_crystal_density_diffrn    4.183
_cod_original_formula_sum        '(Fe Mn) Si O4'
_cod_database_code               9010696
_amcsd_formula_title             FeMnSiO4
loop_
_space_group_symop_operation_xyz
x,y,z
x,y,1/2-z
-x,-y,1/2+z
1/2+x,1/2-y,1/2+z
1/2-x,1/2+y,1/2-z
1/2-x,1/2+y,z
1/2+x,1/2-y,-z
-x,-y,-z
loop_
_atom_site_label
_atom_site_fract_x
_atom_site_fract_y
_atom_site_fract_z
_atom_site_occupancy
_atom_site_U_iso_or_equiv
FeM1 0.00000 0.00000 0.00000 0.69100 0.01418
MnM1 0.00000 0.00000 0.00000 0.30900 0.01418
MnM2 0.96600 0.29040 0.25000 0.69100 0.01418
FeM2 0.96600 0.29040 0.25000 0.30900 0.01418
Si 0.42690 0.09620 0.25000 1.00000 0.01001
O1 0.76090 0.09360 0.25000 1.00000 0.01786
O2 0.21460 0.45490 0.25000 1.00000 0.01900
O3 0.28790 0.16430 0.04010 1.00000 0.01684
loop_
_cod_related_entry_id
_cod_related_entry_database
_cod_related_entry_code
1 AMCSD 0006674
