#------------------------------------------------------------------------------
#$Date: 2023-03-26 11:09:57 +0300 (Sun, 26 Mar 2023) $
#$Revision: 282068 $
#$URL: file:///home/coder/svn-repositories/cod/cif/9/01/05/9010504.cif $
#------------------------------------------------------------------------------
#
# This file is available in the Crystallography Open Database (COD),
# http://www.crystallography.net/. The original data for this entry
# were provided the American Mineralogist Crystal Structure Database,
# http://rruff.geo.arizona.edu/AMS/amcsd.php
#
# The file may be used within the scientific community so long as
# proper attribution is given to the journal article from which the
# data were obtained.
#
data_9010504
loop_
_publ_author_name
'Fleet, M. E.'
'Liu, X.'
_publ_section_title
;Accommodation of the carbonate ion in fluorapatite synthesized at high
 pressure Locality: synthetic Note: LM130 sample
;
_journal_name_full               'American Mineralogist'
_journal_page_first              1460
_journal_page_last               1469
_journal_paper_doi               10.2138/am.2008.2786
_journal_volume                  93
_journal_year                    2008
_chemical_compound_source        Synthetic
_chemical_formula_sum            'C0.042 Ca5 F0.921 O12.321 P2.883'
_chemical_name_mineral           Fluorapatite
_space_group_IT_number           176
_symmetry_space_group_name_Hall  '-P 6c'
_symmetry_space_group_name_H-M   'P 63/m'
_cell_angle_alpha                90
_cell_angle_beta                 90
_cell_angle_gamma                120
_cell_length_a                   9.3648
_cell_length_b                   9.3648
_cell_length_c                   6.8879
_cell_volume                     523.136
_database_code_amcsd             0004637
_exptl_crystal_density_diffrn    3.205
_cod_original_formula_sum        'Ca5 P2.883 C.042 O12.321 F.921'
_cod_database_code               9010504
loop_
_space_group_symop_operation_xyz
x,y,z
-x+y,-x,1/2-z
x-y,x,1/2+z
y,-x+y,-z
-y,x-y,z
x,y,1/2-z
-x,-y,1/2+z
x-y,x,-z
-x+y,-x,z
-y,x-y,1/2-z
y,-x+y,1/2+z
-x,-y,-z
loop_
_atom_site_aniso_label
_atom_site_aniso_U_11
_atom_site_aniso_U_22
_atom_site_aniso_U_33
_atom_site_aniso_U_12
_atom_site_aniso_U_13
_atom_site_aniso_U_23
Cal 0.01290 0.01290 0.00730 0.00650 0.00000 0.00000
Ca2 0.00910 0.00990 0.00910 0.00450 0.00000 0.00000
P 0.00630 0.00710 0.00660 0.00360 0.00000 0.00000
O1 0.01490 0.01650 0.01450 0.01190 0.00000 0.00000
O2 0.01290 0.00960 0.02390 0.00520 0.00000 0.00000
O3 0.01620 0.02950 0.01490 0.01440 -0.00430 -0.00780
F 0.01100 0.01100 0.03900 0.00600 0.00000 0.00000
loop_
_atom_site_label
_atom_site_fract_x
_atom_site_fract_y
_atom_site_fract_z
_atom_site_occupancy
_atom_site_U_iso_or_equiv
Cal 0.66667 0.33333 0.00095 1.00000 0.01100
Ca2 0.99233 0.24193 0.25000 1.00000 0.00940
P 0.36876 0.39797 0.25000 0.96100 0.00650
C 0.04600 0.06500 0.49200 0.00700 0.02500
O1 0.48420 0.32570 0.25000 0.99600 0.01350
O2 0.46710 0.58800 0.25000 0.99100 0.01570
O3 0.25700 0.34160 0.07140 1.00000 0.01890
O5 0.14400 0.22000 0.47200 0.00700 0.02500
O6 0.00500 0.00200 0.66200 0.00700 0.02500
O7 0.99000 0.97200 0.34300 0.00700 0.02500
O8 0.45000 0.54500 0.25000 0.03900 0.02500
O9 0.46600 0.35400 0.25000 0.03900 0.02500
F 0.00000 0.00000 0.25000 0.92100 0.02030
loop_
_cod_related_entry_id
_cod_related_entry_database
_cod_related_entry_code
1 AMCSD 0004637
