#------------------------------------------------------------------------------
#$Date: 2023-05-21 11:37:04 +0300 (Sun, 21 May 2023) $
#$Revision: 283911 $
#$URL: file:///home/coder/svn-repositories/cod/cif/9/01/01/9010155.cif $
#------------------------------------------------------------------------------
#
# This file is available in the Crystallography Open Database (COD),
# http://www.crystallography.net/. The original data for this entry
# were provided the American Mineralogist Crystal Structure Database,
# http://rruff.geo.arizona.edu/AMS/amcsd.php
#
# The file may be used within the scientific community so long as
# proper attribution is given to the journal article from which the
# data were obtained.
#
data_9010155
loop_
_publ_author_name
'Lopano, C. L.'
'Heaney, P. J.'
'Post, J. E.'
'Hanson, J.'
'Komarneni, S.'
_publ_section_title
;Time-resolved structural analysis of K-and Ba-exchange reactions with
 synthetic Na-birnessite using synchrotron X-ray diffraction Locality:
 synthetic Sample: Na-birnessite
;
_journal_name_full               'American Mineralogist'
_journal_page_first              380
_journal_page_last               387
_journal_paper_doi               10.2138/am.2007.2242
_journal_volume                  92
_journal_year                    2007
_chemical_compound_source        Synthetic
_chemical_formula_sum            'H4 Mn Na0.29 O2.691'
_chemical_name_mineral           Birnessite
_space_group_IT_number           2
_symmetry_space_group_name_Hall  '-P 1 (1/2*x+1/2*y,1/2*x-1/2*y,-z)'
_symmetry_space_group_name_H-M   'C -1'
_cell_angle_alpha                89.45
_cell_angle_beta                 103.18
_cell_angle_gamma                89.91
_cell_formula_units_Z            2
_cell_length_a                   5.1780
_cell_length_b                   2.8509
_cell_length_c                   7.3344
_cell_volume                     105.412
_database_code_amcsd             0004276
_exptl_crystal_density_diffrn    3.424
_cod_original_formula_sum        'Na.29 Mn O2.691 H4'
_cod_database_code               9010155
loop_
_space_group_symop_operation_xyz
x,y,z
1/2+x,1/2+y,z
-x,-y,-z
1/2-x,1/2-y,-z
loop_
_atom_site_label
_atom_site_fract_x
_atom_site_fract_y
_atom_site_fract_z
_atom_site_occupancy
_atom_site_U_iso_or_equiv
_atom_site_type_symbol
_atom_site_attached_hydrogens
Na -0.02700 0.31540 0.48850 0.14500 0.07260 Na 0
Mn 0.00000 0.00000 0.00000 1.00000 0.00450 Mn 0
O 0.36860 -0.02410 0.13070 1.00000 0.01380 O 0
Wat -0.02700 0.31540 0.48850 0.34530 0.07260 O 2
loop_
_cod_changelog_entry_id
_cod_changelog_entry_author
_cod_changelog_entry_date
_cod_changelog_entry_text
1
;cod-tools version 3.8.0
Id: cif_guess_AMCSD_atom_types 9581 2023-05-17 12:35:41Z saulius
;
2023-05-21T08:53:44+03:00
;Derived atom types and hydrogen counts
from atom names that follow the AMCSD naming convention
(Wat == water, O-H == hydroxyl).
;
loop_
_cod_related_entry_id
_cod_related_entry_database
_cod_related_entry_code
1 AMCSD 0004276
