#------------------------------------------------------------------------------
#$Date: 2023-03-26 11:09:57 +0300 (Sun, 26 Mar 2023) $
#$Revision: 282068 $
#$URL: file:///home/coder/svn-repositories/cod/cif/9/01/03/9010316.cif $
#------------------------------------------------------------------------------
#
# This file is available in the Crystallography Open Database (COD),
# http://www.crystallography.net/. The original data for this entry
# were provided the American Mineralogist Crystal Structure Database,
# http://rruff.geo.arizona.edu/AMS/amcsd.php
#
# The file may be used within the scientific community so long as
# proper attribution is given to the journal article from which the
# data were obtained.
#
data_9010316
loop_
_publ_author_name
'Basciano, L. C.'
'Peterson, R. C.'
_publ_section_title
;
 Jarosite - hydronium jarosite solid solution series with
 full iron occupancy: Mineralogy and crystal chemistry
 Sample: J
;
_journal_name_full               'American Mineralogist'
_journal_page_first              1464
_journal_page_last               1473
_journal_paper_doi               10.2138/am.2007.2432
_journal_volume                  92
_journal_year                    2007
_chemical_compound_source        Synthetic
_chemical_formula_sum            'Fe2.79 H6.13 K0.87 O14 S2'
_chemical_name_mineral           Jarosite
_space_group_IT_number           166
_symmetry_space_group_name_Hall  '-R 3 2"'
_symmetry_space_group_name_H-M   'R -3 m :H'
_cell_angle_alpha                90
_cell_angle_beta                 90
_cell_angle_gamma                120
_cell_length_a                   7.3063
_cell_length_b                   7.3063
_cell_length_c                   17.0341
_cell_volume                     787.490
_database_code_amcsd             0004438
_exptl_crystal_density_diffrn    3.063
_cod_original_sg_symbol_H-M      'R -3 m'
_cod_original_formula_sum        'K.87 H6.13 Fe2.79 S2 O14'
_cod_database_code               9010316
loop_
_space_group_symop_operation_xyz
x,y,z
2/3+x,1/3+y,1/3+z
1/3+x,2/3+y,2/3+z
x,x-y,z
2/3+x,1/3+x-y,1/3+z
1/3+x,2/3+x-y,2/3+z
y,x,-z
2/3+y,1/3+x,1/3-z
1/3+y,2/3+x,2/3-z
-x+y,y,z
2/3-x+y,1/3+y,1/3+z
1/3-x+y,2/3+y,2/3+z
-x,-x+y,-z
2/3-x,1/3-x+y,1/3-z
1/3-x,2/3-x+y,2/3-z
-y,-x,z
2/3-y,1/3-x,1/3+z
1/3-y,2/3-x,2/3+z
x-y,-y,-z
2/3+x-y,1/3-y,1/3-z
1/3+x-y,2/3-y,2/3-z
y,-x+y,-z
2/3+y,1/3-x+y,1/3-z
1/3+y,2/3-x+y,2/3-z
-x+y,-x,z
2/3-x+y,1/3-x,1/3+z
1/3-x+y,2/3-x,2/3+z
-x,-y,-z
2/3-x,1/3-y,1/3-z
1/3-x,2/3-y,2/3-z
-y,x-y,z
2/3-y,1/3+x-y,1/3+z
1/3-y,2/3+x-y,2/3+z
x-y,x,-z
2/3+x-y,1/3+x,1/3-z
1/3+x-y,2/3+x,2/3-z
loop_
_atom_site_label
_atom_site_fract_x
_atom_site_fract_y
_atom_site_fract_z
_atom_site_occupancy
_atom_site_U_iso_or_equiv
K 0.00000 0.00000 0.00000 0.87000 0.03040
H3O 0.00000 0.00000 0.00000 0.13000 0.03040
Fe 0.16667 -0.16667 -0.16667 0.93000 0.03420
S 0.00000 0.00000 0.31110 1.00000 0.02153
O1 0.00000 0.00000 0.39660 1.00000 0.04433
O2 0.22270 -0.22270 -0.05680 1.00000 0.03166
O3 0.12780 -0.12780 0.13600 1.00000 0.02660
H 0.16800 -0.16800 0.10200 1.00000 0.02533
loop_
_cod_related_entry_id
_cod_related_entry_database
_cod_related_entry_code
1 AMCSD 0004438
