#------------------------------------------------------------------------------
#$Date: 2023-03-26 11:09:57 +0300 (Sun, 26 Mar 2023) $
#$Revision: 282068 $
#$URL: file:///home/coder/svn-repositories/cod/cif/9/01/01/9010190.cif $
#------------------------------------------------------------------------------
#
# This file is available in the Crystallography Open Database (COD),
# http://www.crystallography.net/. The original data for this entry
# were provided the American Mineralogist Crystal Structure Database,
# http://rruff.geo.arizona.edu/AMS/amcsd.php
#
# The file may be used within the scientific community so long as
# proper attribution is given to the journal article from which the
# data were obtained.
#
data_9010190
loop_
_publ_author_name
'Nestola, F.'
'Rotiroti, N.'
'Bruno, M.'
'Tribaudino, M.'
'van Smaalen, S.'
'Ohashi, H.'
'Redhammer, G. J.'
_publ_section_title
;
 Low-temperature behavior of NaGaSi2O6
 Sample: T = 110 K
;
_journal_name_full               'American Mineralogist'
_journal_page_first              560
_journal_page_last               569
_journal_paper_doi               10.2138/am.2007.2304
_journal_volume                  92
_journal_year                    2007
_chemical_formula_structural     NaGaSi2O6
_chemical_formula_sum            'Ga Na O6 Si2'
_space_group_IT_number           15
_symmetry_space_group_name_Hall  '-C 2yc'
_symmetry_space_group_name_H-M   'C 1 2/c 1'
_cell_angle_alpha                90
_cell_angle_beta                 107.628
_cell_angle_gamma                90
_cell_length_a                   9.5442
_cell_length_b                   8.6849
_cell_length_c                   5.2662
_cell_volume                     416.020
_database_code_amcsd             0004311
_diffrn_ambient_temperature      110
_exptl_crystal_density_diffrn    3.910
_cod_original_formula_sum        'Na Ga Si2 O6'
_cod_database_code               9010190
_amcsd_formula_title             NaGaSi2O6
loop_
_space_group_symop_operation_xyz
x,y,z
1/2+x,1/2+y,z
x,-y,1/2+z
1/2+x,1/2-y,1/2+z
-x,y,1/2-z
1/2-x,1/2+y,1/2-z
-x,-y,-z
1/2-x,1/2-y,-z
loop_
_atom_site_label
_atom_site_fract_x
_atom_site_fract_y
_atom_site_fract_z
_atom_site_U_iso_or_equiv
Na 0.00000 0.30058 0.25000 0.00520
Ga 0.00000 0.90238 0.25000 0.00163
Si 0.29125 0.09128 0.23264 0.00183
O1 0.11190 0.07820 0.13385 0.00276
O2 0.35882 0.25945 0.30267 0.00340
O3 0.35297 0.00994 0.00775 0.00320
loop_
_cod_related_entry_id
_cod_related_entry_database
_cod_related_entry_code
1 AMCSD 0004311
