#------------------------------------------------------------------------------
#$Date: 2023-03-26 11:09:57 +0300 (Sun, 26 Mar 2023) $
#$Revision: 282068 $
#$URL: file:///home/coder/svn-repositories/cod/cif/9/01/02/9010277.cif $
#------------------------------------------------------------------------------
#
# This file is available in the Crystallography Open Database (COD),
# http://www.crystallography.net/. The original data for this entry
# were provided the American Mineralogist Crystal Structure Database,
# http://rruff.geo.arizona.edu/AMS/amcsd.php
#
# The file may be used within the scientific community so long as
# proper attribution is given to the journal article from which the
# data were obtained.
#
data_9010277
loop_
_publ_author_name
'Dorsam, G.'
'Liebscher, A.'
'Franz, G.'
'Gottschalk, M.'
_publ_section_title
;
 Crystal chemistry of synthetic Ca2Al3Si3O12OH - Sr2Al3Si3O12OH
 solid solution series of zoisite and clinozoisite
 Sample: Run no. = Au32, X(Sr) = .078
;
_journal_name_full               'American Mineralogist'
_journal_page_first              1133
_journal_page_last               1147
_journal_paper_doi               10.2138/am.2007.2353
_journal_volume                  92
_journal_year                    2007
_chemical_compound_source        Synthetic
_chemical_formula_sum            'Al3 Ca1.843 H O13 Si3 Sr0.157'
_chemical_name_mineral           Clinozoisite
_space_group_IT_number           11
_symmetry_space_group_name_Hall  '-P 2yb'
_symmetry_space_group_name_H-M   'P 1 21/m 1'
_cell_angle_alpha                90
_cell_angle_beta                 115.42
_cell_angle_gamma                90
_cell_length_a                   8.8652
_cell_length_b                   5.5753
_cell_length_c                   10.1449
_cell_volume                     452.878
_database_code_amcsd             0004398
_exptl_crystal_density_diffrn    3.387
_cod_original_formula_sum        '(Sr.157 Ca1.843) Al3 Si3 O13 H'
_cod_database_code               9010277
loop_
_space_group_symop_operation_xyz
x,y,z
x,1/2-y,z
-x,1/2+y,-z
-x,-y,-z
loop_
_atom_site_label
_atom_site_fract_x
_atom_site_fract_y
_atom_site_fract_z
_atom_site_occupancy
SrA1 0.76000 0.75000 0.15600 0.02900
CaA1 0.76000 0.75000 0.15600 0.97100
SrA2 0.60400 0.75000 0.42300 0.12800
CaA2 0.60400 0.75000 0.42300 0.87200
Al1 0.00000 0.00000 0.00000 1.00000
Al2 0.00000 0.00000 0.50000 1.00000
Al3 0.28600 0.25000 0.22400 1.00000
Si1 0.33300 0.75000 0.04400 1.00000
Si2 0.67900 0.25000 0.27700 1.00000
Si3 0.18100 0.75000 0.31600 1.00000
O1 0.23100 0.00000 0.04500 1.00000
O2 0.30000 0.98500 0.35800 1.00000
O3 0.78200 0.00700 0.34600 1.00000
O4 0.04500 0.25000 0.11900 1.00000
O5 0.03800 0.75000 0.14100 1.00000
O6 0.05200 0.75000 0.38700 1.00000
O7 0.51700 0.75000 0.15900 1.00000
O8 0.51100 0.25000 0.29900 1.00000
O9 0.64600 0.25000 0.11000 1.00000
O10 0.07100 0.25000 0.40800 1.00000
H 0.04600 0.25000 0.34100 1.00000
loop_
_cod_related_entry_id
_cod_related_entry_database
_cod_related_entry_code
1 AMCSD 0004398
