#------------------------------------------------------------------------------
#$Date: 2023-03-26 11:09:57 +0300 (Sun, 26 Mar 2023) $
#$Revision: 282068 $
#$URL: file:///home/coder/svn-repositories/cod/cif/9/01/14/9011465.cif $
#------------------------------------------------------------------------------
#
# This file is available in the Crystallography Open Database (COD),
# http://www.crystallography.net/. The original data for this entry
# were provided the American Mineralogist Crystal Structure Database,
# http://rruff.geo.arizona.edu/AMS/amcsd.php
#
# The file may be used within the scientific community so long as
# proper attribution is given to the journal article from which the
# data were obtained.
#
data_9011465
loop_
_publ_author_name
'Kudoh, Y.'
'Takeuchi, Y.'
_publ_section_title
;
 The crystal structure of forsterite Mg2SiO4 under high pressure up to 149 kb
 Sample: P = 86 kbar
;
_journal_name_full               'Zeitschrift fur Kristallographie'
_journal_page_first              291
_journal_page_last               302
_journal_volume                  171
_journal_year                    1985
_chemical_formula_structural     Mg2(SiO4)
_chemical_formula_sum            'Mg2 O4 Si'
_chemical_name_mineral           Forsterite
_space_group_IT_number           62
_symmetry_space_group_name_Hall  '-P 2c 2ab'
_symmetry_space_group_name_H-M   'P b n m'
_cell_angle_alpha                90
_cell_angle_beta                 90
_cell_angle_gamma                90
_cell_length_a                   4.685
_cell_length_b                   9.913
_cell_length_c                   5.845
_cell_volume                     271.456
_database_code_amcsd             0010932
_diffrn_ambient_pressure         8.6e+06
_exptl_crystal_density_diffrn    3.443
_cod_original_formula_sum        'Mg2 Si O4'
_cod_database_code               9011465
loop_
_space_group_symop_operation_xyz
x,y,z
x,y,1/2-z
-x,-y,1/2+z
1/2+x,1/2-y,1/2+z
1/2-x,1/2+y,1/2-z
1/2-x,1/2+y,z
1/2+x,1/2-y,-z
-x,-y,-z
loop_
_atom_site_label
_atom_site_fract_x
_atom_site_fract_y
_atom_site_fract_z
_atom_site_U_iso_or_equiv
Mg1 0.00000 0.00000 0.00000 0.00507
Mg2 0.99030 0.27680 0.25000 0.00228
Si 0.42780 0.09450 0.25000 0.00013
O1 0.76800 0.09130 0.25000 0.00266
O2 0.21890 0.44760 0.25000 0.00570
O3 0.27710 0.16460 0.03360 0.00063
loop_
_cod_related_entry_id
_cod_related_entry_database
_cod_related_entry_code
1 AMCSD 0010932
