#------------------------------------------------------------------------------
#$Date: 2023-03-26 11:09:57 +0300 (Sun, 26 Mar 2023) $
#$Revision: 282068 $
#$URL: file:///home/coder/svn-repositories/cod/cif/9/01/12/9011262.cif $
#------------------------------------------------------------------------------
#
# This file is available in the Crystallography Open Database (COD),
# http://www.crystallography.net/. The original data for this entry
# were provided the American Mineralogist Crystal Structure Database,
# http://rruff.geo.arizona.edu/AMS/amcsd.php
#
# The file may be used within the scientific community so long as
# proper attribution is given to the journal article from which the
# data were obtained.
#
data_9011262
loop_
_publ_author_name
'Wechsler, B. A.'
'Von Dreele, R. B.'
_publ_section_title
;Structure refinements of Mg2TiO4, MgTiO3 and MgTi2O5 by time-of-flight
 neutron powder diffraction Locality: synthetic Sample: T = 973 K
;
_journal_issue                   6
_journal_name_full               'Acta Crystallographica, Section B'
_journal_page_first              542
_journal_page_last               549
_journal_paper_doi               10.1107/S010876818900786X
_journal_volume                  45
_journal_year                    1989
_chemical_compound_source        Synthetic
_chemical_formula_sum            'Mg0.999 O5 Ti2.001'
_chemical_name_mineral           Armalcolite
_space_group_IT_number           63
_symmetry_space_group_name_Hall  '-B 2 2b'
_symmetry_space_group_name_H-M   'B b m m'
_cell_angle_alpha                90
_cell_angle_beta                 90
_cell_angle_gamma                90
_cell_length_a                   9.7289
_cell_length_b                   10.0057
_cell_length_c                   3.7416
_cell_volume                     364.224
_database_code_amcsd             0009835
_diffrn_ambient_temperature      973
_exptl_crystal_density_diffrn    3.649
_cod_original_formula_sum        '(Mg.999 Ti2.001) O5'
_cod_database_code               9011262
loop_
_space_group_symop_operation_xyz
x,y,z
1/2+x,y,1/2+z
-x,1/2+y,z
1/2-x,1/2+y,1/2+z
x,1/2-y,-z
1/2+x,1/2-y,1/2-z
x,y,-z
1/2+x,y,1/2-z
-x,-y,z
1/2-x,-y,1/2+z
x,1/2-y,z
1/2+x,1/2-y,1/2+z
-x,1/2+y,-z
1/2-x,1/2+y,1/2-z
-x,-y,-z
1/2-x,-y,1/2-z
loop_
_atom_site_label
_atom_site_fract_x
_atom_site_fract_y
_atom_site_fract_z
_atom_site_occupancy
_atom_site_U_iso_or_equiv
MgM1 0.19521 0.25000 0.00000 0.78700 0.00580
TiM1 0.19521 0.25000 0.00000 0.21300 0.00580
MgM2 0.13255 0.56474 0.00000 0.10600 0.00350
TiM2 0.13255 0.56474 0.00000 0.89400 0.00350
O1 0.77696 0.25000 0.00000 1.00000 0.00810
O2 0.04606 0.11407 0.00000 1.00000 0.00820
O3 0.31332 0.06499 0.00000 1.00000 0.00680
loop_
_cod_related_entry_id
_cod_related_entry_database
_cod_related_entry_code
1 AMCSD 0009835
