#------------------------------------------------------------------------------
#$Date: 2023-03-26 11:09:57 +0300 (Sun, 26 Mar 2023) $
#$Revision: 282068 $
#$URL: file:///home/coder/svn-repositories/cod/cif/9/01/11/9011174.cif $
#------------------------------------------------------------------------------
#
# This file is available in the Crystallography Open Database (COD),
# http://www.crystallography.net/. The original data for this entry
# were provided the American Mineralogist Crystal Structure Database,
# http://rruff.geo.arizona.edu/AMS/amcsd.php
#
# The file may be used within the scientific community so long as
# proper attribution is given to the journal article from which the
# data were obtained.
#
data_9011174
loop_
_publ_author_name
'Liebich, W.'
'Nicollin, D.'
_publ_section_title
;
 Refinement of the PbFCl types BaFI, BaFBr and CaFCl
 Note: matlockite structure
;
_journal_name_full               'Acta Crystallographica, Section B'
_journal_page_first              2790
_journal_page_last               2794
_journal_paper_doi               10.1107/S0567740877009480
_journal_volume                  33
_journal_year                    1977
_chemical_compound_source        Synthetic
_chemical_formula_structural     BaBrF
_chemical_formula_sum            'Ba Br F'
_space_group_IT_number           129
_symmetry_space_group_name_Hall  '-P 4a 2a'
_symmetry_space_group_name_H-M   'P 4/n m m :2'
_cell_angle_alpha                90
_cell_angle_beta                 90
_cell_angle_gamma                90
_cell_length_a                   4.508
_cell_length_b                   4.508
_cell_length_c                   7.441
_cell_volume                     151.216
_database_code_amcsd             0009602
_exptl_crystal_density_diffrn    5.188
_cod_original_sg_symbol_H-M      'P 4/n m m'
_cod_database_code               9011174
_amcsd_formula_title             BaBrF
loop_
_space_group_symop_operation_xyz
x,y,z
1/2-y,1/2-x,z
1/2+y,1/2+x,-z
1/2+y,-x,-z
1/2-y,x,z
x,1/2-y,z
-x,1/2+y,-z
1/2+x,1/2+y,-z
1/2-x,1/2-y,z
y,x,z
-y,-x,-z
-y,1/2+x,-z
y,1/2-x,z
1/2-x,y,z
1/2+x,-y,-z
-x,-y,-z
loop_
_atom_site_aniso_label
_atom_site_aniso_U_11
_atom_site_aniso_U_22
_atom_site_aniso_U_33
_atom_site_aniso_U_12
_atom_site_aniso_U_13
_atom_site_aniso_U_23
Ba 0.00940 0.00940 0.01880 0.00000 0.00000 0.00000
Br 0.01550 0.01550 0.02220 0.00000 0.00000 0.00000
F 0.01000 0.01000 0.04500 0.00000 0.00000 0.00000
loop_
_atom_site_label
_atom_site_fract_x
_atom_site_fract_y
_atom_site_fract_z
Ba 0.25000 0.25000 0.19110
Br 0.25000 0.25000 0.64970
F 0.75000 0.25000 0.00000
loop_
_cod_related_entry_id
_cod_related_entry_database
_cod_related_entry_code
1 AMCSD 0009602
