#------------------------------------------------------------------------------
#$Date: 2023-03-26 11:09:57 +0300 (Sun, 26 Mar 2023) $
#$Revision: 282068 $
#$URL: file:///home/coder/svn-repositories/cod/cif/9/01/11/9011173.cif $
#------------------------------------------------------------------------------
#
# This file is available in the Crystallography Open Database (COD),
# http://www.crystallography.net/. The original data for this entry
# were provided the American Mineralogist Crystal Structure Database,
# http://rruff.geo.arizona.edu/AMS/amcsd.php
#
# The file may be used within the scientific community so long as
# proper attribution is given to the journal article from which the
# data were obtained.
#
data_9011173
loop_
_publ_author_name
'Liebich, W.'
'Nicollin, D.'
_publ_section_title
;
 Refinement of the PbFCl types BaFI, BaFBr and CaFCl
 Note: matlockite structure
;
_journal_name_full               'Acta Crystallographica, Section B'
_journal_page_first              2790
_journal_page_last               2794
_journal_paper_doi               10.1107/S0567740877009480
_journal_volume                  33
_journal_year                    1977
_chemical_compound_source        Synthetic
_chemical_formula_sum            'Ca Cl F'
_chemical_name_mineral           Rorisite
_space_group_IT_number           129
_symmetry_space_group_name_Hall  '-P 4a 2a'
_symmetry_space_group_name_H-M   'P 4/n m m :2'
_cell_angle_alpha                90
_cell_angle_beta                 90
_cell_angle_gamma                90
_cell_length_a                   3.894
_cell_length_b                   3.894
_cell_length_c                   6.818
_cell_volume                     103.383
_database_code_amcsd             0009601
_exptl_crystal_density_diffrn    3.037
_cod_original_sg_symbol_H-M      'P 4/n m m'
_cod_database_code               9011173
loop_
_space_group_symop_operation_xyz
x,y,z
1/2-y,1/2-x,z
1/2+y,1/2+x,-z
1/2+y,-x,-z
1/2-y,x,z
x,1/2-y,z
-x,1/2+y,-z
1/2+x,1/2+y,-z
1/2-x,1/2-y,z
y,x,z
-y,-x,-z
-y,1/2+x,-z
y,1/2-x,z
1/2-x,y,z
1/2+x,-y,-z
-x,-y,-z
loop_
_atom_site_label
_atom_site_fract_x
_atom_site_fract_y
_atom_site_fract_z
_atom_site_U_iso_or_equiv
Ca 0.25000 0.25000 0.19620 0.00340
Cl 0.25000 0.25000 0.64320 0.00700
F 0.75000 0.25000 0.00000 0.00340
loop_
_cod_related_entry_id
_cod_related_entry_database
_cod_related_entry_code
1 AMCSD 0009601
