#------------------------------------------------------------------------------
#$Date: 2023-03-26 11:09:57 +0300 (Sun, 26 Mar 2023) $
#$Revision: 282068 $
#$URL: file:///home/coder/svn-repositories/cod/cif/9/01/17/9011784.cif $
#------------------------------------------------------------------------------
#
# This file is available in the Crystallography Open Database (COD),
# http://www.crystallography.net/. The original data for this entry
# were provided the American Mineralogist Crystal Structure Database,
# http://rruff.geo.arizona.edu/AMS/amcsd.php
#
# The file may be used within the scientific community so long as
# proper attribution is given to the journal article from which the
# data were obtained.
#
data_9011784
loop_
_publ_author_name
'Bannister, F. A.'
_publ_section_title
;
 The crystal-structure of the bismuth oxyhalides
;
_journal_name_full               'Mineralogical Magazine'
_journal_page_first              49
_journal_page_last               58
_journal_paper_doi               10.1180/minmag.1935.024.149.01
_journal_volume                  24
_journal_year                    1935
_chemical_compound_source        Synthetic
_chemical_formula_structural     BiOI
_chemical_formula_sum            'Bi I O'
_space_group_IT_number           129
_symmetry_space_group_name_Hall  'P 4ab 2ab -1ab'
_symmetry_space_group_name_H-M   'P 4/n m m :1'
_cell_angle_alpha                90
_cell_angle_beta                 90
_cell_angle_gamma                90
_cell_length_a                   4.01
_cell_length_b                   4.01
_cell_length_c                   9.14
_cell_volume                     146.972
_database_code_amcsd             0014437
_exptl_crystal_density_diffrn    7.951
_cod_original_sg_symbol_H-M      'P 4/n m m'
_cod_original_formula_sum        'Bi O I'
_cod_database_code               9011784
_amcsd_formula_title             BiOI
loop_
_space_group_symop_operation_xyz
x,y,z
1/2-y,1/2-x,z
y,x,-z
y,-x,-z
1/2-y,1/2+x,z
x,-y,z
1/2-x,1/2+y,-z
1/2+x,1/2+y,-z
-x,-y,z
1/2+y,1/2+x,z
-y,-x,-z
-y,x,-z
1/2+y,1/2-x,z
-x,y,z
1/2+x,1/2-y,-z
1/2-x,1/2-y,-z
loop_
_atom_site_label
_atom_site_fract_x
_atom_site_fract_y
_atom_site_fract_z
Bi 0.00000 0.50000 0.13200
O 0.00000 0.00000 0.00000
I 0.00000 0.50000 0.66700
loop_
_cod_related_entry_id
_cod_related_entry_database
_cod_related_entry_code
1 AMCSD 0014437
