#------------------------------------------------------------------------------
#$Date: 2023-05-10 20:44:19 +0300 (Wed, 10 May 2023) $
#$Revision: 283658 $
#$URL: file:///home/coder/svn-repositories/cod/cif/9/01/10/9011041.cif $
#------------------------------------------------------------------------------
#
# This file is available in the Crystallography Open Database (COD),
# http://www.crystallography.net/. The original data for this entry
# were provided the American Mineralogist Crystal Structure Database,
# http://rruff.geo.arizona.edu/AMS/amcsd.php
#
# The file may be used within the scientific community so long as
# proper attribution is given to the journal article from which the
# data were obtained.
#
data_9011041
loop_
_publ_author_name
'Strunz, V. H.'
'Contag, B.'
_publ_section_title
;
 Hexahydroxostannate Fe, Mn, Co, Mg, Ca[Sn(OH)6] und deren kristallstruktur
;
_journal_name_full               'Acta Crystallographica'
_journal_page_first              601
_journal_page_last               603
_journal_paper_doi               10.1107/S0365110X60001436
_journal_volume                  13
_journal_year                    1960
_chemical_formula_structural     MgSn(OH)6
_chemical_formula_sum            'H6 Mg O6 Sn'
_space_group_IT_number           224
_symmetry_space_group_name_Hall  '-P 4bc 2bc 3'
_symmetry_space_group_name_H-M   'P n -3 m :2'
_cell_angle_alpha                90
_cell_angle_beta                 90
_cell_angle_gamma                90
_cell_formula_units_Z            4
_cell_length_a                   7.77
_cell_length_b                   7.77
_cell_length_c                   7.77
_cell_volume                     469.097
_database_code_amcsd             0009243
_exptl_crystal_density_diffrn    3.470
_cod_original_sg_symbol_H-M      'P n 3 m'
_cod_original_formula_sum        'Mg Sn (O6 H6)'
_cod_database_code               9011041
_amcsd_formula_title             MgSn(OH)6
loop_
_space_group_symop_operation_xyz
x,y,z
1/2+z,-x,1/2+y
1/2-y,z,1/2-x
1/2+x,-y,1/2+z
1/2-z,x,1/2-y
1/2+y,-z,1/2+x
1/2-x,y,1/2-z
x,1/2-z,1/2-y
-z,1/2+y,1/2+x
y,1/2-x,1/2-z
-x,1/2+z,1/2+y
z,1/2-y,1/2-x
-y,1/2+x,1/2+z
x,z,y
-z,-y,-x
y,x,z
-x,-z,-y
z,y,x
-y,-x,-z
1/2+z,1/2+x,-y
1/2-y,1/2-z,x
1/2+x,1/2+y,-z
1/2-z,1/2-x,y
1/2+y,1/2+z,-x
1/2-x,1/2-y,z
-z,1/2+x,1/2+y
y,1/2-z,1/2-x
-x,1/2+y,1/2+z
z,1/2-x,1/2-y
-y,1/2+z,1/2+x
x,1/2-y,1/2-z
1/2-x,z,1/2-y
1/2+z,-y,1/2+x
1/2-y,x,1/2-z
1/2+x,-z,1/2+y
1/2-z,y,1/2-x
1/2+y,-x,1/2+z
1/2-x,1/2-z,y
1/2+z,1/2+y,-x
1/2-y,1/2-x,z
1/2+x,1/2+z,-y
1/2-z,1/2-y,x
1/2+y,1/2+x,-z
-z,-x,-y
y,z,x
-x,-y,-z
z,x,y
-y,-z,-x
loop_
_atom_site_label
_atom_site_fract_x
_atom_site_fract_y
_atom_site_fract_z
_atom_site_type_symbol
_atom_site_attached_hydrogens
Mg 0.50000 0.50000 0.50000 Mg 0
Sn 0.00000 0.00000 0.00000 Sn 0
O-H 0.04450 0.04450 0.25400 O 1
loop_
_cod_changelog_entry_id
_cod_changelog_entry_author
_cod_changelog_entry_date
_cod_changelog_entry_text
1
;cod-tools version 3.8.0
Id: cif_guess_AMCSD_atom_types 9574 2023-05-10 09:00:05Z saulius
;
2023-05-10T18:52:53+03:00
;Derived atom types and hydrogen counts
from atom names that follow the AMCSD naming convention
(Wat == water, O-H == hydroxyl).
;
loop_
_cod_related_entry_id
_cod_related_entry_database
_cod_related_entry_code
1 AMCSD 0009243
