#------------------------------------------------------------------------------
#$Date: 2023-03-26 11:09:57 +0300 (Sun, 26 Mar 2023) $
#$Revision: 282068 $
#$URL: file:///home/coder/svn-repositories/cod/cif/9/01/15/9011591.cif $
#------------------------------------------------------------------------------
#
# This file is available in the Crystallography Open Database (COD),
# http://www.crystallography.net/. The original data for this entry
# were provided the American Mineralogist Crystal Structure Database,
# http://rruff.geo.arizona.edu/AMS/amcsd.php
#
# The file may be used within the scientific community so long as
# proper attribution is given to the journal article from which the
# data were obtained.
#
data_9011591
loop_
_publ_author_name
'Kudoh, Y.'
'Takeda, H.'
_publ_section_title
;
 Single crystal X-ray diffraction study on the bond compressibility
 of fayalite, Fe~2~SiO~4~ and rutile, TiO~2~ under high pressure
 Sample: P = 93 kbar
;
_journal_name_full               'Physica B+C'
_journal_page_first              333
_journal_page_last               336
_journal_paper_doi               10.1016/0378-4363(86)90591-7
_journal_volume                  140
_journal_year                    1986
_chemical_formula_sum            'Fe2 O4 Si'
_chemical_name_mineral           Fayalite
_space_group_IT_number           62
_symmetry_space_group_name_Hall  '-P 2c 2ab'
_symmetry_space_group_name_H-M   'P b n m'
_cell_angle_alpha                90
_cell_angle_beta                 90
_cell_angle_gamma                90
_cell_length_a                   4.757
_cell_length_b                   10.153
_cell_length_c                   5.985
_cell_volume                     289.062
_database_code_amcsd             0015002
_diffrn_ambient_pressure         9.3e+06
_exptl_crystal_density_diffrn    4.682
_cod_original_formula_sum        'Fe2 Si O4'
_cod_database_code               9011591
loop_
_space_group_symop_operation_xyz
x,y,z
x,y,1/2-z
-x,-y,1/2+z
1/2+x,1/2-y,1/2+z
1/2-x,1/2+y,1/2-z
1/2-x,1/2+y,z
1/2+x,1/2-y,-z
-x,-y,-z
loop_
_atom_site_label
_atom_site_fract_x
_atom_site_fract_y
_atom_site_fract_z
_atom_site_U_iso_or_equiv
Fe1 0.00000 0.00000 0.00000 0.00595
Fe2 0.98220 0.27870 0.25000 0.00595
Si 0.42310 0.09330 0.25000 0.00367
O1 0.76940 0.09380 0.25000 0.00684
O2 0.20710 0.45070 0.25000 0.00583
O3 0.28660 0.16600 0.03800 0.00228
loop_
_cod_related_entry_id
_cod_related_entry_database
_cod_related_entry_code
1 AMCSD 0015002
