#------------------------------------------------------------------------------
#$Date: 2023-11-12 12:37:04 +0200 (Sun, 12 Nov 2023) $
#$Revision: 287555 $
#$URL: file:///home/coder/svn-repositories/cod/cif/9/01/23/9012354.cif $
#------------------------------------------------------------------------------
#
# This file is available in the Crystallography Open Database (COD),
# http://www.crystallography.net/. The original data for this entry
# were provided the American Mineralogist Crystal Structure Database,
# http://rruff.geo.arizona.edu/AMS/amcsd.php
#
# The file may be used within the scientific community so long as
# proper attribution is given to the journal article from which the
# data were obtained.
#
data_9012354
loop_
_publ_author_name
'Jacobs, H.'
'Niemann, A.'
'Kockelmann, W.'
_publ_section_title
;Low temperature investigations of hydrogen bridge bonds in the hydroxides
 beta-Be(OH)2 and epsilon-Zn(OH)2 by Raman-spectroscopy as well as X-ray and
 neutron diffraction Locality: synthetic Sample: T = 50 K
;
_journal_name_full
'Zeitschrift fur Anorganische und Allgemeine Chemie'
_journal_page_first              1247
_journal_page_last               1254
_journal_paper_doi               10.1002/zaac.200500030
_journal_volume                  631
_journal_year                    2005
_chemical_formula_structural     Be(OD)2
_chemical_formula_sum            'Be D2 O2'
_chemical_name_mineral           'Behoite (deuterated)'
_space_group_IT_number           19
_symmetry_space_group_name_Hall  'P 2ac 2ab'
_symmetry_space_group_name_H-M   'P 21 21 21'
_cell_angle_alpha                90
_cell_angle_beta                 90
_cell_angle_gamma                90
_cell_length_a                   4.5260
_cell_length_b                   4.6318
_cell_length_c                   7.0192
_cell_volume                     147.147
_diffrn_ambient_temperature      50
_exptl_crystal_density_diffrn    2.033
_cod_original_formula_sum        'Be O2 D2'
_cod_database_code               9012354
loop_
_symmetry_equiv_pos_as_xyz
x,y,z
-x,1/2+y,1/2-z
1/2+x,1/2-y,-z
1/2-x,-y,1/2+z
loop_
_atom_site_aniso_label
_atom_site_aniso_U_11
_atom_site_aniso_U_22
_atom_site_aniso_U_33
_atom_site_aniso_U_12
_atom_site_aniso_U_13
_atom_site_aniso_U_23
Be 0.00900 0.00900 0.01300 -0.00200 0.00100 -0.00100
O1 0.01600 0.01000 0.01300 -0.00100 -0.00100 0.00400
O2 0.00700 0.02400 0.00800 -0.00100 -0.00300 -0.00400
D1 0.02000 0.02200 0.02500 0.00000 0.00400 -0.00500
D2 0.02800 0.02400 0.02100 0.00000 -0.00700 0.00400
loop_
_atom_site_label
_atom_site_fract_x
_atom_site_fract_y
_atom_site_fract_z
_atom_site_U_iso_or_equiv
Be 0.03270 0.70560 0.62700 0.01013
O1 0.18940 0.10630 0.04540 0.01267
O2 0.15220 0.41450 0.72860 0.01267
D1 0.27340 0.09490 0.56430 0.02153
D2 0.35280 0.43030 0.78050 0.02406
_database_code_amcsd 0015822
