#------------------------------------------------------------------------------
#$Date: 2023-03-26 11:09:57 +0300 (Sun, 26 Mar 2023) $
#$Revision: 282068 $
#$URL: file:///home/coder/svn-repositories/cod/cif/9/01/26/9012607.cif $
#------------------------------------------------------------------------------
#
# This file is available in the Crystallography Open Database (COD),
# http://www.crystallography.net/. The original data for this entry
# were provided the American Mineralogist Crystal Structure Database,
# http://rruff.geo.arizona.edu/AMS/amcsd.php
#
# The file may be used within the scientific community so long as
# proper attribution is given to the journal article from which the
# data were obtained.
#
data_9012607
loop_
_publ_author_name
'Rozhdestvenskaya, I. V.'
'Zayakina, N. V.'
'Samusikov, V. P.'
_publ_section_title
;
 Crystal structure features of minerals from a series of
 tetrahedrite-freibergite
 Sample: 1
;
_journal_name_full               'Mineralogiceskij Zhurnal'
_journal_page_first              9
_journal_page_last               17
_journal_volume                  15
_journal_year                    1993
_chemical_formula_structural     Cu10Zn2Sb4S13
_chemical_formula_sum            'Ag0.06 Cu9.9 Fe0.06 S13 Sb3.88 Zn1.86'
_chemical_name_mineral           Tetrahedrite-(Zn)
_space_group_IT_number           217
_symmetry_space_group_name_Hall  'I -4 2 3'
_symmetry_space_group_name_H-M   'I -4 3 m'
_cell_angle_alpha                90
_cell_angle_beta                 90
_cell_angle_gamma                90
_cell_length_a                   10.382
_cell_length_b                   10.382
_cell_length_c                   10.382
_cell_volume                     1119.033
_database_code_amcsd             0014607
_exptl_crystal_density_diffrn    4.896
_cod_original_cell_volume        1119.034
_cod_original_formula_sum        'Cu9.9 Ag.06 Zn1.86 Fe.06 Sb3.88 S13'
_cod_database_code               9012607
loop_
_space_group_symop_operation_xyz
x,y,z
1/2+x,1/2+y,1/2+z
-z,x,-y
1/2-z,1/2+x,1/2-y
-y,z,-x
1/2-y,1/2+z,1/2-x
-x,y,-z
1/2-x,1/2+y,1/2-z
x,-z,-y
1/2+x,1/2-z,1/2-y
z,-y,-x
1/2+z,1/2-y,1/2-x
y,-x,-z
1/2+y,1/2-x,1/2-z
x,z,y
1/2+x,1/2+z,1/2+y
z,y,x
1/2+z,1/2+y,1/2+x
y,x,z
1/2+y,1/2+x,1/2+z
-z,-x,y
1/2-z,1/2-x,1/2+y
-y,-z,x
1/2-y,1/2-z,1/2+x
-x,-y,z
1/2-x,1/2-y,1/2+z
z,-x,-y
1/2+z,1/2-x,1/2-y
y,-z,-x
1/2+y,1/2-z,1/2-x
x,-y,-z
1/2+x,1/2-y,1/2-z
-x,z,-y
1/2-x,1/2+z,1/2-y
-z,y,-x
1/2-z,1/2+y,1/2-x
-y,x,-z
1/2-y,1/2+x,1/2-z
-x,-z,y
1/2-x,1/2-z,1/2+y
-z,-y,x
1/2-z,1/2-y,1/2+x
-y,-x,z
1/2-y,1/2-x,1/2+z
z,x,y
1/2+z,1/2+x,1/2+y
y,z,x
1/2+y,1/2+z,1/2+x
loop_
_atom_site_label
_atom_site_fract_x
_atom_site_fract_y
_atom_site_fract_z
_atom_site_occupancy
_atom_site_U_iso_or_equiv
CuM2 0.21630 0.00000 0.00000 0.97000 0.05535
AgM2 0.21630 0.00000 0.00000 0.01000 0.05535
CuM1 0.25000 0.50000 0.00000 0.68000 0.01608
ZnM1 0.25000 0.50000 0.00000 0.31000 0.01608
FeM1 0.25000 0.50000 0.00000 0.01000 0.01608
Sb 0.26810 0.26810 0.26810 0.97000 0.01393
S1 0.11600 0.11600 0.36120 1.00000 0.01267
S2 0.00000 0.00000 0.00000 1.00000 0.02026
loop_
_cod_related_entry_id
_cod_related_entry_database
_cod_related_entry_code
1 AMCSD 0014607
