#------------------------------------------------------------------------------
#$Date: 2023-11-11 10:53:55 +0200 (Sat, 11 Nov 2023) $
#$Revision: 287541 $
#$URL: file:///home/coder/svn-repositories/cod/cif/9/01/26/9012673.cif $
#------------------------------------------------------------------------------
#
# This file is available in the Crystallography Open Database (COD),
# http://www.crystallography.net/. The original data for this entry
# were provided the American Mineralogist Crystal Structure Database,
# http://rruff.geo.arizona.edu/AMS/amcsd.php
#
# The file may be used within the scientific community so long as
# proper attribution is given to the journal article from which the
# data were obtained.
#
data_9012673
loop_
_publ_author_name
'Rozhdestvina, V. I.'
'Ivanov, A. V.'
'Zaremba, M. A.'
'Antsutkin, O. N.'
'Forsling, W.'
_publ_section_title
;
 Single-crystalline cooperite (PtS): Crystal-chemical characterization,
 ESR spectroscopy, and 195Pt NMR Spectroscopy
 Locality: Sea of Okhotsk region, Maimakansk zone, Far East
;
_journal_name_full               'Crystallography Reports'
_journal_page_first              391
_journal_page_last               397
_journal_paper_doi               10.1134/S106377450803005X
_journal_volume                  53
_journal_year                    2008
_chemical_formula_sum            'Fe0.001 Pt0.992 S1.007'
_chemical_name_mineral           Cooperite
_space_group_IT_number           131
_symmetry_space_group_name_Hall  '-P 4c 2'
_symmetry_space_group_name_H-M   'P 42/m m c'
_cell_angle_alpha                90
_cell_angle_beta                 90
_cell_angle_gamma                90
_cell_length_a                   3.4710
_cell_length_b                   3.4710
_cell_length_c                   6.1084
_cell_volume                     73.593
_exptl_crystal_density_diffrn    10.193
_cod_original_formula_sum        'Pt.992 Fe.001 S1.007'
_cod_database_code               9012673
loop_
_symmetry_equiv_pos_as_xyz
x,y,z
-y,-x,1/2+z
y,x,1/2-z
y,-x,1/2-z
-y,x,1/2+z
x,-y,z
-x,y,-z
x,y,-z
-x,-y,z
y,x,1/2+z
-y,-x,1/2-z
-y,x,1/2-z
y,-x,1/2+z
-x,y,z
x,-y,-z
-x,-y,-z
loop_
_atom_site_label
_atom_site_fract_x
_atom_site_fract_y
_atom_site_fract_z
_atom_site_occupancy
Pt 0.00000 0.50000 0.00000 0.99200
Fe 0.00000 0.50000 0.00000 0.00100
S 0.00000 0.50000 0.00000 0.00700
S 0.00000 0.00000 0.25000 1.00000
_database_code_amcsd 0012401
