#------------------------------------------------------------------------------
#$Date: 2023-05-10 20:44:19 +0300 (Wed, 10 May 2023) $
#$Revision: 283658 $
#$URL: file:///home/coder/svn-repositories/cod/cif/9/01/20/9012095.cif $
#------------------------------------------------------------------------------
#
# This file is available in the Crystallography Open Database (COD),
# http://www.crystallography.net/. The original data for this entry
# were provided the American Mineralogist Crystal Structure Database,
# http://rruff.geo.arizona.edu/AMS/amcsd.php
#
# The file may be used within the scientific community so long as
# proper attribution is given to the journal article from which the
# data were obtained.
#
data_9012095
loop_
_publ_author_name
'Kato, T.'
'Miura, Y.'
_publ_section_title
;
 The crystal structure of jarosite and svanbergite
;
_journal_name_full               'Mineralogical Journal'
_journal_page_first              419
_journal_page_last               430
_journal_paper_doi               10.2465/minerj.8.419
_journal_volume                  8
_journal_year                    1977
_chemical_compound_source        'Dover Andalusite Mine, Nevada, USA'
_chemical_formula_sum            'Al3 H6 O14 P S Sr'
_chemical_name_mineral           Svanbergite
_space_group_IT_number           166
_symmetry_space_group_name_Hall  '-R 3 2"'
_symmetry_space_group_name_H-M   'R -3 m :H'
_cell_angle_alpha                90
_cell_angle_beta                 90
_cell_angle_gamma                120
_cell_formula_units_Z            3
_cell_length_a                   6.992
_cell_length_b                   6.992
_cell_length_c                   16.5670
_cell_volume                     701.419
_database_code_amcsd             0014419
_exptl_crystal_density_diffrn    3.279
_cod_original_sg_symbol_H-M      'R -3 m'
_cod_original_formula_sum        'Sr Al3 (P S) O14 H6'
_cod_database_code               9012095
loop_
_space_group_symop_operation_xyz
x,y,z
2/3+x,1/3+y,1/3+z
1/3+x,2/3+y,2/3+z
x,x-y,z
2/3+x,1/3+x-y,1/3+z
1/3+x,2/3+x-y,2/3+z
y,x,-z
2/3+y,1/3+x,1/3-z
1/3+y,2/3+x,2/3-z
-x+y,y,z
2/3-x+y,1/3+y,1/3+z
1/3-x+y,2/3+y,2/3+z
-x,-x+y,-z
2/3-x,1/3-x+y,1/3-z
1/3-x,2/3-x+y,2/3-z
-y,-x,z
2/3-y,1/3-x,1/3+z
1/3-y,2/3-x,2/3+z
x-y,-y,-z
2/3+x-y,1/3-y,1/3-z
1/3+x-y,2/3-y,2/3-z
y,-x+y,-z
2/3+y,1/3-x+y,1/3-z
1/3+y,2/3-x+y,2/3-z
-x+y,-x,z
2/3-x+y,1/3-x,1/3+z
1/3-x+y,2/3-x,2/3+z
-x,-y,-z
2/3-x,1/3-y,1/3-z
1/3-x,2/3-y,2/3-z
-y,x-y,z
2/3-y,1/3+x-y,1/3+z
1/3-y,2/3+x-y,2/3+z
x-y,x,-z
2/3+x-y,1/3+x,1/3-z
1/3+x-y,2/3+x,2/3-z
loop_
_atom_site_label
_atom_site_fract_x
_atom_site_fract_y
_atom_site_fract_z
_atom_site_occupancy
_atom_site_U_iso_or_equiv
_atom_site_type_symbol
_atom_site_attached_hydrogens
Sr 0.00000 0.00000 0.00000 1.00000 0.01634 Sr 0
Al 0.16667 -0.16667 -0.16667 1.00000 0.00266 Al 0
P 0.00000 0.00000 0.30950 0.50000 0.00139 P 0
S 0.00000 0.00000 0.30950 0.50000 0.00139 S 0
O1 0.00000 0.00000 0.39930 1.00000 0.00456 O 0
O2 0.21800 -0.21800 -0.05580 1.00000 0.00583 O 0
O-H 0.12470 -0.12470 0.13580 1.00000 0.00165 O 1
loop_
_cod_changelog_entry_id
_cod_changelog_entry_author
_cod_changelog_entry_date
_cod_changelog_entry_text
1
;cod-tools version 3.8.0
Id: cif_guess_AMCSD_atom_types 9574 2023-05-10 09:00:05Z saulius
;
2023-05-10T18:53:48+03:00
;Derived atom types and hydrogen counts
from atom names that follow the AMCSD naming convention
(Wat == water, O-H == hydroxyl).
;
loop_
_cod_related_entry_id
_cod_related_entry_database
_cod_related_entry_code
1 AMCSD 0014419
