#------------------------------------------------------------------------------
#$Date: 2023-03-26 11:09:57 +0300 (Sun, 26 Mar 2023) $
#$Revision: 282068 $
#$URL: file:///home/coder/svn-repositories/cod/cif/9/01/20/9012076.cif $
#------------------------------------------------------------------------------
#
# This file is available in the Crystallography Open Database (COD),
# http://www.crystallography.net/. The original data for this entry
# were provided the American Mineralogist Crystal Structure Database,
# http://rruff.geo.arizona.edu/AMS/amcsd.php
#
# The file may be used within the scientific community so long as
# proper attribution is given to the journal article from which the
# data were obtained.
#
data_9012076
loop_
_publ_author_name
'Darmon, R.'
'Wintenberger, M.'
_publ_section_title
;
 Structure cristalline de CoAs2
;
_journal_name_full
'Bulletin de la Societe Francaise de Mineralogie et de Cristallographie'
_journal_page_first              213
_journal_page_last               215
_journal_volume                  89
_journal_year                    1966
_chemical_formula_sum            'As2 Co'
_chemical_name_mineral           Clinosafflorite
_space_group_crystal_system      monoclinic
_space_group_IT_number           14
_space_group_name_Hall           '-P 2ybc (x+1/2*z,y,1/2*z)'
_space_group_name_H-M_alt        'B 1 21/d 1'
_symmetry_space_group_name_H-M   'B 1 21/d 1'
_cell_angle_alpha                90
_cell_angle_beta                 90.6
_cell_angle_gamma                90
_cell_length_a                   10.12
_cell_length_b                   5.86
_cell_length_c                   6.24
_cell_volume                     370.032
_database_code_amcsd             0012118
_exptl_crystal_density_diffrn    7.495
_cod_depositor_comments
;
 Updating space group information.

 2018-06-13,
 Antanas Vaitkus
;
_cod_original_formula_sum        'Co As2'
_cod_database_code               9012076
loop_
_space_group_symop_id
_space_group_symop_operation_xyz
1 x,y,z
2 1/2+x,y,1/2+z
3 3/4-x,1/2+y,3/4-z
4 1/4-x,1/2+y,1/4-z
5 3/4+x,1/2-y,3/4+z
6 1/4+x,1/2-y,1/4+z
7 1/2-x,-y,1/2-z
8 -x,-y,-z
loop_
_atom_site_label
_atom_site_fract_x
_atom_site_fract_y
_atom_site_fract_z
Co 0.49500 -0.01100 0.22200
As1 0.58400 0.63100 0.24000
As2 0.39600 0.36500 0.24100
loop_
_cod_related_entry_id
_cod_related_entry_database
_cod_related_entry_code
1 AMCSD 0012118
