#------------------------------------------------------------------------------
#$Date: 2023-03-26 11:09:57 +0300 (Sun, 26 Mar 2023) $
#$Revision: 282068 $
#$URL: file:///home/coder/svn-repositories/cod/cif/9/01/25/9012568.cif $
#------------------------------------------------------------------------------
#
# This file is available in the Crystallography Open Database (COD),
# http://www.crystallography.net/. The original data for this entry
# were provided the American Mineralogist Crystal Structure Database,
# http://rruff.geo.arizona.edu/AMS/amcsd.php
#
# The file may be used within the scientific community so long as
# proper attribution is given to the journal article from which the
# data were obtained.
#
data_9012568
loop_
_publ_author_name
'Kjekshus, A.'
'Peterzens, P. G.'
'Rakke, T.'
'Andresen, A. F.'
_publ_section_title
;
 Compounds with the marcasite type crystal structure. XIII. Structural and
 magnetic properties of CrtFe1-tAs2, CrtFe1-tSb2, Fe1-tNitAs2 and Fe1-tNitSb2
 Sample: Fe.68Cr.32As2
;
_journal_name_full               'Acta Chemica Scandinavica A'
_journal_page_first              469
_journal_page_last               480
_journal_volume                  33
_journal_year                    1979
_chemical_compound_source        Synthetic
_chemical_formula_sum            'As2 Cr0.32 Fe0.68'
_chemical_name_mineral           Lollingite
_space_group_IT_number           58
_symmetry_space_group_name_Hall  '-P 2 2n'
_symmetry_space_group_name_H-M   'P n n m'
_cell_angle_alpha                90
_cell_angle_beta                 90
_cell_angle_gamma                90
_cell_length_a                   5.3544
_cell_length_b                   6.0853
_cell_length_c                   2.9112
_cell_volume                     94.856
_database_code_amcsd             0011953
_exptl_crystal_density_diffrn    7.158
_cod_original_formula_sum        '(Cr.32 Fe.68) As2'
_cod_database_code               9012568
loop_
_space_group_symop_operation_xyz
x,y,z
1/2+x,1/2-y,1/2+z
1/2-x,1/2+y,1/2-z
1/2-x,1/2+y,1/2+z
1/2+x,1/2-y,1/2-z
x,y,-z
-x,-y,z
-x,-y,-z
loop_
_atom_site_label
_atom_site_fract_x
_atom_site_fract_y
_atom_site_fract_z
_atom_site_occupancy
Cr 0.00000 0.00000 0.00000 0.32000
Fe 0.00000 0.00000 0.00000 0.68000
As 0.17300 0.36490 0.00000 1.00000
loop_
_cod_related_entry_id
_cod_related_entry_database
_cod_related_entry_code
1 AMCSD 0011953
