#------------------------------------------------------------------------------
#$Date: 2023-03-26 11:09:57 +0300 (Sun, 26 Mar 2023) $
#$Revision: 282068 $
#$URL: file:///home/coder/svn-repositories/cod/cif/9/01/25/9012554.cif $
#------------------------------------------------------------------------------
#
# This file is available in the Crystallography Open Database (COD),
# http://www.crystallography.net/. The original data for this entry
# were provided the American Mineralogist Crystal Structure Database,
# http://rruff.geo.arizona.edu/AMS/amcsd.php
#
# The file may be used within the scientific community so long as
# proper attribution is given to the journal article from which the
# data were obtained.
#
data_9012554
loop_
_publ_author_name
'Kjekshus, A.'
'Rakke, T.'
'Andresen, A.'
_publ_section_title
;
 Compounds of the marcasite type crystal structure. IX. Structural data for
 FeAs2, FeSe2, NiAs2, NiSb2, and CuSe2
;
_journal_name_full               'Acta Chemica Scandinavica A'
_journal_page_first              996
_journal_page_last               1000
_journal_volume                  28
_journal_year                    1974
_chemical_compound_source        Synthetic
_chemical_formula_sum            'Cu Se2'
_chemical_name_mineral           Krutaite
_space_group_IT_number           58
_symmetry_space_group_name_Hall  '-P 2 2n'
_symmetry_space_group_name_H-M   'P n n m'
_cell_angle_alpha                90
_cell_angle_beta                 90
_cell_angle_gamma                90
_cell_length_a                   5.0226
_cell_length_b                   6.1957
_cell_length_c                   3.7468
_cell_volume                     116.595
_database_code_amcsd             0011939
_exptl_crystal_density_diffrn    6.308
_cod_database_code               9012554
_amcsd_formula_title             CuSe2
loop_
_space_group_symop_operation_xyz
x,y,z
1/2+x,1/2-y,1/2+z
1/2-x,1/2+y,1/2-z
1/2-x,1/2+y,1/2+z
1/2+x,1/2-y,1/2-z
x,y,-z
-x,-y,z
-x,-y,-z
loop_
_atom_site_label
_atom_site_fract_x
_atom_site_fract_y
_atom_site_fract_z
Cu 0.00000 0.00000 0.00000
Se 0.18350 0.38490 0.00000
loop_
_cod_related_entry_id
_cod_related_entry_database
_cod_related_entry_code
1 AMCSD 0011939
