#------------------------------------------------------------------------------
#$Date: 2016-02-16 14:49:47 +0200 (Tue, 16 Feb 2016) $
#$Revision: 176465 $
#$URL: svn://www.crystallography.net/cod/cif/9/01/25/9012566.cif $
#------------------------------------------------------------------------------
#
# This file is available in the Crystallography Open Database (COD),
# http://www.crystallography.net/. The original data for this entry
# were provided the American Mineralogist Crystal Structure Database,
# http://rruff.geo.arizona.edu/AMS/amcsd.php
#
# The file may be used within the scientific community so long as
# proper attribution is given to the journal article from which the
# data were obtained.
#
data_9012566
loop_
_publ_author_name
'Kjekshus, A.'
'Peterzens, P. G.'
'Rakke, T.'
'Andresen, A. F.'
_publ_section_title
;
 Compounds with the marcasite type crystal structure. XIII. Structural and
 magnetic properties of CrtFe1-tAs2, CrtFe1-tSb2, Fe1-tNitAs2 and Fe1-tNitSb2
;
_journal_name_full               'Acta Chemica Scandinavica A'
_journal_page_first              469
_journal_page_last               480
_journal_volume                  33
_journal_year                    1979
_chemical_formula_structural     Cr.63Fe.37As2
_chemical_formula_sum            'As2 Fe0.63 Ni0.37'
_space_group_IT_number           58
_symmetry_space_group_name_Hall  '-P 2 2n'
_symmetry_space_group_name_H-M   'P n n m'
_cell_angle_alpha                90
_cell_angle_beta                 90
_cell_angle_gamma                90
_cell_length_a                   5.3971
_cell_length_b                   6.1893
_cell_length_c                   2.9539
_cell_volume                     98.673
_exptl_crystal_density_diffrn    6.958
_cod_original_formula_sum        '(Fe.63 Ni.37) As2'
_cod_database_code               9012566
loop_
_symmetry_equiv_pos_as_xyz
x,y,z
1/2+x,1/2-y,1/2+z
1/2-x,1/2+y,1/2-z
1/2-x,1/2+y,1/2+z
1/2+x,1/2-y,1/2-z
x,y,-z
-x,-y,z
-x,-y,-z
loop_
_atom_site_label
_atom_site_fract_x
_atom_site_fract_y
_atom_site_fract_z
_atom_site_occupancy
Fe 0.00000 0.00000 0.00000 0.63000
Ni 0.00000 0.00000 0.00000 0.37000
As 0.17060 0.36810 0.00000 1.00000
