#------------------------------------------------------------------------------
#$Date: 2023-05-10 20:44:19 +0300 (Wed, 10 May 2023) $
#$Revision: 283658 $
#$URL: file:///home/coder/svn-repositories/cod/cif/9/01/20/9012078.cif $
#------------------------------------------------------------------------------
#
# This file is available in the Crystallography Open Database (COD),
# http://www.crystallography.net/. The original data for this entry
# were provided the American Mineralogist Crystal Structure Database,
# http://rruff.geo.arizona.edu/AMS/amcsd.php
#
# The file may be used within the scientific community so long as
# proper attribution is given to the journal article from which the
# data were obtained.
#
data_9012078
loop_
_publ_author_name
'Cohen-Addad C'
_publ_section_title
;
 Etude des hydroxystannates CaSn(OH)6 et ZnSn(OH)6 par
 diffraction des rayons X et resonance magnetique nucleaire
 Locality: synthetic
 Note: schoenfliesite group
;
_journal_name_full
'Bulletin de la Societe Francaise de Mineralogie et de Cristallographie'
_journal_page_first              32
_journal_page_last               35
_journal_volume                  90
_journal_year                    1967
_chemical_formula_sum            'H6 O6 Sn Zn'
_chemical_name_mineral           Vismirnovite
_space_group_IT_number           201
_symmetry_space_group_name_Hall  '-P 2ab 2bc 3'
_symmetry_space_group_name_H-M   'P n -3 :2'
_cell_angle_alpha                90
_cell_angle_beta                 90
_cell_angle_gamma                90
_cell_formula_units_Z            4
_cell_length_a                   7.80
_cell_length_b                   7.80
_cell_length_c                   7.80
_cell_volume                     474.552
_exptl_crystal_density_diffrn    4.005
_cod_duplicate_entry             9009699
_cod_original_sg_symbol_H-M      'P n 3'
_cod_original_formula_sum        'Zn Sn (O6 H6)'
_cod_database_code               9012078
loop_
_symmetry_equiv_pos_as_xyz
x,y,z
1/2+z,1/2+x,-y
1/2+z,-x,1/2+y
-z,1/2+x,1/2+y
-z,-x,-y
y,1/2-z,1/2-x
1/2-y,1/2-z,x
1/2-y,z,1/2-x
y,z,x
1/2+x,-y,1/2+z
-x,1/2+y,1/2+z
1/2+x,1/2+y,-z
-x,-y,-z
1/2-z,1/2-x,y
1/2-z,x,1/2-y
z,1/2-x,1/2-y
z,x,y
-y,1/2+z,1/2+x
1/2+y,1/2+z,-x
1/2+y,-z,1/2+x
-y,-z,-x
1/2-x,y,1/2-z
x,1/2-y,1/2-z
1/2-x,1/2-y,z
loop_
_atom_site_label
_atom_site_fract_x
_atom_site_fract_y
_atom_site_fract_z
_atom_site_U_iso_or_equiv
_atom_site_type_symbol
_atom_site_attached_hydrogens
Zn 0.00000 0.00000 0.00000 0.01646 Zn 0
Sn 0.50000 0.50000 0.50000 0.01140 Sn 0
O-H -0.07000 0.07000 0.26300 0.02913 O 1
loop_
_cod_changelog_entry_id
_cod_changelog_entry_author
_cod_changelog_entry_date
_cod_changelog_entry_text
1
;cod-tools version 3.8.0
Id: cif_guess_AMCSD_atom_types 9574 2023-05-10 09:00:05Z saulius
;
2023-05-10T18:53:45+03:00
;Derived atom types and hydrogen counts
from atom names that follow the AMCSD naming convention
(Wat == water, O-H == hydroxyl).
;
