#------------------------------------------------------------------------------
#$Date: 2023-05-23 11:35:25 +0300 (Tue, 23 May 2023) $
#$Revision: 283960 $
#$URL: file:///home/coder/svn-repositories/cod/cif/9/01/26/9012690.cif $
#------------------------------------------------------------------------------
#
# This file is available in the Crystallography Open Database (COD),
# http://www.crystallography.net/. The original data for this entry
# were provided the American Mineralogist Crystal Structure Database,
# http://rruff.geo.arizona.edu/AMS/amcsd.php
#
# The file may be used within the scientific community so long as
# proper attribution is given to the journal article from which the
# data were obtained.
#
data_9012690
loop_
_publ_author_name
'Frank-Kamenetskaya O V'
'Rozhdestvenskaya, I. V.'
'Yanulova, L. A.'
_publ_section_title
;
 New data on the crystal structures of colusites and arsenosulvanites
 Sample: 3
;
_journal_name_full               'Journal of Structural Chemistry'
_journal_page_first              89
_journal_page_last               100
_journal_paper_doi               10.1023/A:1016077917390
_journal_volume                  43
_journal_year                    2002
_chemical_compound_source        'Kafan, Mongolia'
_chemical_formula_sum            'As1.8 Cu12.92 S16 Sb0.3 Sn0.9 V'
_chemical_name_mineral           Colusite
_space_group_IT_number           218
_symmetry_space_group_name_Hall  'P -4n 2 3'
_symmetry_space_group_name_H-M   'P -4 3 n'
_cell_angle_alpha                90
_cell_angle_beta                 90
_cell_angle_gamma                90
_cell_formula_units_Z            2
_cell_length_a                   10.653
_cell_length_b                   10.653
_cell_length_c                   10.653
_cell_volume                     1208.971
_database_code_amcsd             0014062
_exptl_crystal_density_diffrn    4.569
_cod_original_formula_sum        'Cu12.92 V (As1.8 Sb.3 Sn.9) S16'
_cod_database_code               9012690
loop_
_space_group_symop_operation_xyz
x,y,z
-z,x,-y
-y,z,-x
-x,y,-z
1/2+x,1/2-z,1/2-y
1/2+z,1/2-y,1/2-x
1/2+y,1/2-x,1/2-z
1/2+x,1/2+z,1/2+y
1/2+z,1/2+y,1/2+x
1/2+y,1/2+x,1/2+z
-z,-x,y
-y,-z,x
-x,-y,z
z,-x,-y
y,-z,-x
x,-y,-z
1/2-x,1/2+z,1/2-y
1/2-z,1/2+y,1/2-x
1/2-y,1/2+x,1/2-z
1/2-x,1/2-z,1/2+y
1/2-z,1/2-y,1/2+x
1/2-y,1/2-x,1/2+z
z,x,y
y,z,x
loop_
_atom_site_label
_atom_site_fract_x
_atom_site_fract_y
_atom_site_fract_z
_atom_site_occupancy
_atom_site_U_iso_or_equiv
_atom_site_type_symbol
_atom_site_attached_hydrogens
CuT2 0.25000 0.00000 0.50000 1.00000 0.01700 Cu 0
CuT3 0.25770 0.00000 0.00000 1.00000 0.01600 Cu 0
CuT4 0.24830 0.24830 0.24830 0.98000 0.01900 Cu 0
VT*1 0.00000 0.00000 0.00000 1.00000 0.00900 V 0
AsT1 0.25000 0.50000 0.00000 0.60000 0.00900 As 0
SbT1 0.25000 0.50000 0.00000 0.10000 0.00900 Sb 0
SnT1 0.25000 0.50000 0.00000 0.30000 0.00900 Sn 0
S1 0.11680 0.11680 0.11680 1.00000 0.01900 S 0
S2 0.12280 0.37000 0.37260 1.00000 0.01100 S 0
loop_
_cod_changelog_entry_id
_cod_changelog_entry_author
_cod_changelog_entry_date
_cod_changelog_entry_text
1
;cod-tools version 3.8.0
Id: cif_guess_AMCSD_atom_types 9581 2023-05-17 12:35:41Z saulius
;
2023-05-23T09:21:40+03:00
;Derived atom types and hydrogen counts
from atom names that follow the AMCSD naming convention
(Wat == water, O-H == hydroxyl).
;
loop_
_cod_related_entry_id
_cod_related_entry_database
_cod_related_entry_code
1 AMCSD 0014062
