#------------------------------------------------------------------------------
#$Date: 2023-03-26 11:09:57 +0300 (Sun, 26 Mar 2023) $
#$Revision: 282068 $
#$URL: file:///home/coder/svn-repositories/cod/cif/9/01/28/9012882.cif $
#------------------------------------------------------------------------------
#
# This file is available in the Crystallography Open Database (COD),
# http://www.crystallography.net/. The original data for this entry
# were provided the American Mineralogist Crystal Structure Database,
# http://rruff.geo.arizona.edu/AMS/amcsd.php
#
# The file may be used within the scientific community so long as
# proper attribution is given to the journal article from which the
# data were obtained.
#
data_9012882
loop_
_publ_author_name
'Wallbaum, H. J.'
_publ_section_title
;
 Die kristallstrukturen von Bi2Pt und Sn2Pt
;
_journal_name_full               'Zeitschrift fur Metallkunde'
_journal_page_first              200
_journal_page_last               201
_journal_volume                  35
_journal_year                    1943
_chemical_compound_source        Synthetic
_chemical_formula_sum            'Bi2 Pt'
_chemical_name_mineral           Insizwaite
_space_group_IT_number           205
_symmetry_space_group_name_Hall  '-P 2ac 2ab 3'
_symmetry_space_group_name_H-M   'P a -3'
_cell_angle_alpha                90
_cell_angle_beta                 90
_cell_angle_gamma                90
_cell_length_a                   6.683
_cell_length_b                   6.683
_cell_length_c                   6.683
_cell_volume                     298.479
_database_code_amcsd             0015828
_exptl_crystal_density_diffrn    13.642
_cod_original_sg_symbol_H-M      'P a 3'
_cod_original_formula_sum        'Pt Bi2'
_cod_database_code               9012882
loop_
_space_group_symop_operation_xyz
x,y,z
1/2+z,x,1/2-y
z,1/2-x,1/2+y
1/2-z,1/2+x,y
-z,-x,-y
1/2+y,1/2-z,-x
1/2-y,-z,1/2+x
-y,1/2+z,1/2-x
y,z,x
x,1/2-y,1/2+z
1/2-x,1/2+y,z
1/2+x,y,1/2-z
-x,-y,-z
1/2-z,-x,1/2+y
-z,1/2+x,1/2-y
1/2+z,1/2-x,-y
z,x,y
1/2-y,1/2+z,x
1/2+y,z,1/2-x
y,1/2-z,1/2+x
-y,-z,-x
-x,1/2+y,1/2-z
1/2+x,1/2-y,-z
1/2-x,-y,1/2+z
loop_
_atom_site_label
_atom_site_fract_x
_atom_site_fract_y
_atom_site_fract_z
Pt 0.00000 0.00000 0.00000
Bi 0.38000 0.38000 0.38000
loop_
_cod_related_entry_id
_cod_related_entry_database
_cod_related_entry_code
1 AMCSD 0015828
