#------------------------------------------------------------------------------
#$Date: 2023-03-26 11:09:57 +0300 (Sun, 26 Mar 2023) $
#$Revision: 282068 $
#$URL: file:///home/coder/svn-repositories/cod/cif/9/01/30/9013094.cif $
#------------------------------------------------------------------------------
#
# This file is available in the Crystallography Open Database (COD),
# http://www.crystallography.net/. The original data for this entry
# were provided the American Mineralogist Crystal Structure Database,
# http://rruff.geo.arizona.edu/AMS/amcsd.php
#
# The file may be used within the scientific community so long as
# proper attribution is given to the journal article from which the
# data were obtained.
#
data_9013094
loop_
_publ_author_name
'Takeuchi, Y.'
'Yamanaka, T.'
'Haga, N.'
'Hirano, M.'
_publ_section_title
;
 High-temperature crystallography of olivines and spinels
 T = 310 degree C
;
_journal_name_full
'Materials Science of the Earth's Interior, edited by Sunagawa'
_journal_page_first              191
_journal_page_last               231
_journal_volume                  1984
_journal_year                    1984
_chemical_formula_sum            'Mg2 O4 Si'
_chemical_name_mineral           Forsterite
_space_group_IT_number           62
_symmetry_space_group_name_Hall  '-P 2c 2ab'
_symmetry_space_group_name_H-M   'P b n m'
_cell_angle_alpha                90
_cell_angle_beta                 90
_cell_angle_gamma                90
_cell_length_a                   4.75800
_cell_length_b                   10.219
_cell_length_c                   5.9899
_cell_volume                     291.241
_database_code_amcsd             0014394
_diffrn_ambient_temperature      583.15
_exptl_crystal_density_diffrn    3.209
_cod_original_formula_sum        'Mg2 Si O4'
_cod_database_code               9013094
loop_
_space_group_symop_operation_xyz
x,y,z
x,y,1/2-z
-x,-y,1/2+z
1/2+x,1/2-y,1/2+z
1/2-x,1/2+y,1/2-z
1/2-x,1/2+y,z
1/2+x,1/2-y,-z
-x,-y,-z
loop_
_atom_site_aniso_label
_atom_site_aniso_U_11
_atom_site_aniso_U_22
_atom_site_aniso_U_33
_atom_site_aniso_U_12
_atom_site_aniso_U_13
_atom_site_aniso_U_23
Mg1 0.01124 0.01497 0.00909 -0.00025 -0.00130 -0.00217
Mg2 0.01411 0.01085 0.01109 0.00025 0.00000 0.00000
Si 0.00849 0.00936 0.00763 0.00000 0.00000 0.00000
O1 0.00826 0.01428 0.01036 0.00099 0.00000 0.00000
O2 0.01250 0.01005 0.01109 0.00123 0.00000 0.00000
O3 0.01216 0.01375 0.00963 0.00074 -0.00072 0.00217
loop_
_atom_site_label
_atom_site_fract_x
_atom_site_fract_y
_atom_site_fract_z
_atom_site_U_iso_or_equiv
Mg1 0.00000 0.00000 0.00000 0.01178
Mg2 0.99190 0.27800 0.25000 0.01203
Si 0.42660 0.09406 0.25000 0.00849
O1 0.76530 0.09150 0.25000 0.01089
O2 0.22230 0.44760 0.25000 0.01115
O3 0.27880 0.16300 0.03360 0.01191
loop_
_cod_related_entry_id
_cod_related_entry_database
_cod_related_entry_code
1 AMCSD 0014394
