#------------------------------------------------------------------------------
#$Date: 2023-03-26 11:09:57 +0300 (Sun, 26 Mar 2023) $
#$Revision: 282068 $
#$URL: file:///home/coder/svn-repositories/cod/cif/9/01/36/9013629.cif $
#------------------------------------------------------------------------------
#
# This file is available in the Crystallography Open Database (COD),
# http://www.crystallography.net/. The original data for this entry
# were provided the American Mineralogist Crystal Structure Database,
# http://rruff.geo.arizona.edu/AMS/amcsd.php
#
# The file may be used within the scientific community so long as
# proper attribution is given to the journal article from which the
# data were obtained.
#
data_9013629
loop_
_publ_author_name
'Lee, Y. J.'
'Stephens, P. W.'
'Tang, Y.'
'Li, W.'
'Phillips, B. L.'
'Parise, J. B.'
'Reeder, R. J.'
_publ_section_title
;
 Arsenate substitution in hydroxylapatite: Structural characterization of the
 Ca5(PxAs1-xO4)3OH solid solution
 Sample: As24
;
_journal_name_full               'American Mineralogist'
_journal_page_first              666
_journal_page_last               675
_journal_paper_doi               10.2138/am.2009.3120
_journal_volume                  94
_journal_year                    2009
_chemical_compound_source        Synthetic
_chemical_formula_sum            'As0.727 Ca5 H O13 P2.273'
_chemical_name_mineral           Hydroxylapatite
_space_group_IT_number           176
_symmetry_space_group_name_Hall  '-P 6c'
_symmetry_space_group_name_H-M   'P 63/m'
_cell_angle_alpha                90
_cell_angle_beta                 90
_cell_angle_gamma                120
_cell_length_a                   9.5075
_cell_length_b                   9.5075
_cell_length_c                   6.9187
_cell_volume                     541.611
_database_code_amcsd             0004926
_exptl_crystal_density_diffrn    3.276
_cod_original_formula_sum        'Ca5 (As.727 P2.273) O13 H'
_cod_database_code               9013629
loop_
_space_group_symop_operation_xyz
x,y,z
-x+y,-x,1/2-z
x-y,x,1/2+z
y,-x+y,-z
-y,x-y,z
x,y,1/2-z
-x,-y,1/2+z
x-y,x,-z
-x+y,-x,z
-y,x-y,1/2-z
y,-x+y,1/2+z
-x,-y,-z
loop_
_atom_site_label
_atom_site_fract_x
_atom_site_fract_y
_atom_site_fract_z
_atom_site_occupancy
_atom_site_U_iso_or_equiv
Ca1 0.33333 0.66667 0.00150 1.00000 0.01046
Ca2 0.24615 0.99407 0.25000 1.00000 0.01046
As 0.39641 0.36822 0.25000 0.24230 0.01046
P 0.39641 0.36822 0.25000 0.75770 0.01046
O1 0.32208 0.48537 0.25000 1.00000 0.01046
O2 0.58686 0.46258 0.25000 1.00000 0.01046
O3 0.34056 0.25558 0.06641 1.00000 0.01046
O-H4 0.00000 0.00000 0.69460 0.50000 0.01046
loop_
_cod_related_entry_id
_cod_related_entry_database
_cod_related_entry_code
1 AMCSD 0004926
