#------------------------------------------------------------------------------
#$Date: 2016-02-16 14:49:47 +0200 (Tue, 16 Feb 2016) $
#$Revision: 176465 $
#$URL: svn://www.crystallography.net/cod/cif/9/01/33/9013362.cif $
#------------------------------------------------------------------------------
#
# This file is available in the Crystallography Open Database (COD),
# http://www.crystallography.net/. The original data for this entry
# were provided the American Mineralogist Crystal Structure Database,
# http://rruff.geo.arizona.edu/AMS/amcsd.php
#
# The file may be used within the scientific community so long as
# proper attribution is given to the journal article from which the
# data were obtained.
#
data_9013362
loop_
_publ_author_name
'Knight, K. S.'
'Price, G. D.'
_publ_section_title
;Powder neutron-diffraction studies of clinopyroxenes. I. The crystal
 structure and thermoelastic properties of jadeite between 1.5 and 270 K
 Locality: Hweka and Mamon mining district, Burma Note: T = 96.5 K
;
_journal_name_full               'The Canadian Mineralogist'
_journal_page_first              1593
_journal_page_last               1622
_journal_paper_doi               10.3749/canmin.46.6.1593
_journal_volume                  46
_journal_year                    2008
_chemical_formula_structural     NaAl(Si2O6)
_chemical_formula_sum            'Al Na O6 Si2'
_chemical_name_mineral           Jadeite
_space_group_IT_number           15
_symmetry_space_group_name_Hall  '-C 2yc'
_symmetry_space_group_name_H-M   'C 1 2/c 1'
_cell_angle_alpha                90
_cell_angle_beta                 107.5686
_cell_angle_gamma                90
_cell_length_a                   9.41644
_cell_length_b                   8.55600
_cell_length_c                   5.22088
_cell_volume                     401.011
_diffrn_ambient_temperature      96.5
_exptl_crystal_density_diffrn    3.348
_cod_original_formula_sum        'Na Al Si2 O6'
_cod_database_code               9013362
loop_
_symmetry_equiv_pos_as_xyz
x,y,z
1/2+x,1/2+y,z
x,-y,1/2+z
1/2+x,1/2-y,1/2+z
-x,y,1/2-z
1/2-x,1/2+y,1/2-z
-x,-y,-z
1/2-x,1/2-y,-z
loop_
_atom_site_label
_atom_site_fract_x
_atom_site_fract_y
_atom_site_fract_z
_atom_site_U_iso_or_equiv
Na 0.00000 0.30120 0.25000 0.00590
Al 0.00000 0.90700 0.25000 0.00180
Si 0.29100 0.09347 0.22805 0.00153
O1 0.10919 0.07607 0.12845 0.00336
O2 0.36083 0.26338 0.29356 0.00349
O3 0.35378 0.00768 0.00615 0.00322
