#------------------------------------------------------------------------------
#$Date: 2023-03-26 11:09:57 +0300 (Sun, 26 Mar 2023) $
#$Revision: 282068 $
#$URL: file:///home/coder/svn-repositories/cod/cif/9/01/33/9013357.cif $
#------------------------------------------------------------------------------
#
# This file is available in the Crystallography Open Database (COD),
# http://www.crystallography.net/. The original data for this entry
# were provided the American Mineralogist Crystal Structure Database,
# http://rruff.geo.arizona.edu/AMS/amcsd.php
#
# The file may be used within the scientific community so long as
# proper attribution is given to the journal article from which the
# data were obtained.
#
data_9013357
loop_
_publ_author_name
'Knight, K. S.'
'Price, G. D.'
_publ_section_title
;Powder neutron-diffraction studies of clinopyroxenes. I. The crystal
 structure and thermoelastic properties of jadeite between 1.5 and 270 K
;
_journal_name_full               'The Canadian Mineralogist'
_journal_page_first              1593
_journal_page_last               1622
_journal_paper_doi               10.3749/canmin.46.6.1593
_journal_volume                  46
_journal_year                    2008
_chemical_compound_source        'Hweka and Mamon mining district, Burma'
_chemical_formula_structural     NaAl(Si2O6)
_chemical_formula_sum            'Al Na O6 Si2'
_chemical_name_mineral           Jadeite
_space_group_IT_number           15
_symmetry_space_group_name_Hall  '-C 2yc'
_symmetry_space_group_name_H-M   'C 1 2/c 1'
_cell_angle_alpha                90
_cell_angle_beta                 107.5650
_cell_angle_gamma                90
_cell_length_a                   9.41592
_cell_length_b                   8.55523
_cell_length_c                   5.22073
_cell_volume                     400.949
_database_code_amcsd             0006248
_diffrn_ambient_temperature      47.5
_exptl_crystal_density_diffrn    3.349
_cod_original_formula_sum        'Na Al Si2 O6'
_cod_database_code               9013357
loop_
_space_group_symop_operation_xyz
x,y,z
1/2+x,1/2+y,z
x,-y,1/2+z
1/2+x,1/2-y,1/2+z
-x,y,1/2-z
1/2-x,1/2+y,1/2-z
-x,-y,-z
1/2-x,1/2-y,-z
loop_
_atom_site_label
_atom_site_fract_x
_atom_site_fract_y
_atom_site_fract_z
_atom_site_U_iso_or_equiv
Na 0.00000 0.30110 0.25000 0.00510
Al 0.00000 0.90700 0.25000 0.00160
Si 0.29104 0.09350 0.22813 0.00141
O1 0.10922 0.07613 0.12848 0.00326
O2 0.36088 0.26342 0.29375 0.00322
O3 0.35377 0.00772 0.00608 0.00300
loop_
_cod_related_entry_id
_cod_related_entry_database
_cod_related_entry_code
1 AMCSD 0006248
