#------------------------------------------------------------------------------
#$Date: 2023-03-26 11:09:57 +0300 (Sun, 26 Mar 2023) $
#$Revision: 282068 $
#$URL: file:///home/coder/svn-repositories/cod/cif/9/01/38/9013856.cif $
#------------------------------------------------------------------------------
#
# This file is available in the Crystallography Open Database (COD),
# http://www.crystallography.net/. The original data for this entry
# were provided the American Mineralogist Crystal Structure Database,
# http://rruff.geo.arizona.edu/AMS/amcsd.php
#
# The file may be used within the scientific community so long as
# proper attribution is given to the journal article from which the
# data were obtained.
#
data_9013856
loop_
_publ_author_name
'Camara, F.'
'Nestola, F.'
'Angel, R. J.'
'Ohashi, H.'
_publ_section_title
;
 Spontaneous strain variations through the low-temperature displacive
 phase transition of LiGaSi2O6 clinopyroxene
 Note: T = 100 K
;
_journal_name_full               'European Journal of Mineralogy'
_journal_page_first              599
_journal_page_last               614
_journal_paper_doi               10.1127/0935-1221/2009/0021-1926
_journal_volume                  21
_journal_year                    2009
_chemical_compound_source        Synthetic
_chemical_formula_structural     LiGa(Si2O6)
_chemical_formula_sum            'Ga Li O6 Si2'
_space_group_IT_number           14
_symmetry_space_group_name_Hall  '-P 2ybc'
_symmetry_space_group_name_H-M   'P 1 21/c 1'
_cell_angle_alpha                90
_cell_angle_beta                 109.86
_cell_angle_gamma                90
_cell_length_a                   9.5092
_cell_length_b                   8.5684
_cell_length_c                   5.2345
_cell_volume                     401.134
_database_code_amcsd             0007302
_diffrn_ambient_temperature      100
_exptl_crystal_density_diffrn    3.789
_cod_original_formula_sum        'Li Ga Si2 O6'
_cod_database_code               9013856
_amcsd_formula_title             LiGaSi2O6
loop_
_space_group_symop_operation_xyz
x,y,z
x,1/2-y,1/2+z
-x,1/2+y,1/2-z
-x,-y,-z
loop_
_atom_site_aniso_label
_atom_site_aniso_U_11
_atom_site_aniso_U_22
_atom_site_aniso_U_33
_atom_site_aniso_U_12
_atom_site_aniso_U_13
_atom_site_aniso_U_23
LiM2 0.00800 0.01280 0.00180 -0.00100 0.00600 -0.00210
GaM1 0.00275 0.00315 0.00309 -0.00017 0.00087 -0.00003
SiA 0.00300 0.00260 0.00260 -0.00040 0.00140 0.00010
SiB 0.00350 0.00240 0.00210 -0.00040 0.00150 0.00030
O1A 0.00490 0.00430 0.00350 -0.00080 0.00300 -0.00070
O1B 0.00430 0.00510 0.00160 -0.00090 0.00050 0.00080
O2A 0.00610 0.00520 0.00530 -0.00090 0.00270 -0.00020
O2B 0.00430 0.00480 0.00570 -0.00110 0.00270 0.00010
O3A 0.00570 0.00770 0.00480 0.00110 0.00270 0.00200
O3B 0.00310 0.00820 0.00550 0.00120 0.00070 0.00110
loop_
_atom_site_label
_atom_site_fract_x
_atom_site_fract_y
_atom_site_fract_z
_atom_site_U_iso_or_equiv
LiM2 0.25050 0.01400 0.23350 0.00650
GaM1 0.25020 0.65080 0.23383 0.00303
SiA 0.04791 0.34096 0.27328 0.00258
SiB 0.54919 0.84028 0.24731 0.00255
O1A 0.86464 0.33207 0.15980 0.00390
O1B 0.36530 0.83311 0.12830 0.00380
O2A 0.11480 0.51214 0.30870 0.00540
O2B 0.62220 0.00584 0.35370 0.00470
O3A 0.10950 0.26662 0.57830 0.00580
O3B 0.60642 0.72060 0.50410 0.00580
loop_
_cod_related_entry_id
_cod_related_entry_database
_cod_related_entry_code
1 AMCSD 0007302
