#------------------------------------------------------------------------------
#$Date: 2023-03-26 11:09:57 +0300 (Sun, 26 Mar 2023) $
#$Revision: 282068 $
#$URL: file:///home/coder/svn-repositories/cod/cif/9/01/36/9013641.cif $
#------------------------------------------------------------------------------
#
# This file is available in the Crystallography Open Database (COD),
# http://www.crystallography.net/. The original data for this entry
# were provided the American Mineralogist Crystal Structure Database,
# http://rruff.geo.arizona.edu/AMS/amcsd.php
#
# The file may be used within the scientific community so long as
# proper attribution is given to the journal article from which the
# data were obtained.
#
data_9013641
loop_
_publ_author_name
'Hushur, A.'
'Manghnani, M. H.'
'Smyth, J. R.'
'Nestola, F.'
'Frost, D. J.'
_publ_section_title
;Crystal chemistry of hydrous forsterite and its vibrational properties up to
 41 GPa Locality: synthetic Sample: SZ0408B
;
_journal_name_full               'American Mineralogist'
_journal_page_first              751
_journal_page_last               760
_journal_paper_doi               10.2138/am.2009.2990
_journal_volume                  94
_journal_year                    2009
_chemical_compound_source        Synthetic
_chemical_formula_sum            'Mg1.99 O4 Si0.993'
_chemical_name_mineral           Forsterite
_space_group_IT_number           62
_symmetry_space_group_name_Hall  '-P 2c 2ab'
_symmetry_space_group_name_H-M   'P b n m'
_cell_angle_alpha                90
_cell_angle_beta                 90
_cell_angle_gamma                90
_cell_length_a                   4.7547
_cell_length_b                   10.20416
_cell_length_c                   5.98494
_cell_volume                     290.376
_database_code_amcsd             0004938
_exptl_crystal_density_diffrn    3.208
_cod_original_formula_sum        'Mg1.99 Si.993 O4'
_cod_database_code               9013641
loop_
_space_group_symop_operation_xyz
x,y,z
x,y,1/2-z
-x,-y,1/2+z
1/2+x,1/2-y,1/2+z
1/2-x,1/2+y,1/2-z
1/2-x,1/2+y,z
1/2+x,1/2-y,-z
-x,-y,-z
loop_
_atom_site_aniso_label
_atom_site_aniso_U_11
_atom_site_aniso_U_22
_atom_site_aniso_U_33
_atom_site_aniso_U_12
_atom_site_aniso_U_13
_atom_site_aniso_U_23
Mg1 0.00650 0.00890 0.00700 0.00000 0.00000 0.00000
Mg2 0.00740 0.00700 0.00900 0.00000 0.00000 0.00000
Si 0.00470 0.00610 0.00730 0.00000 0.00000 0.00020
O1 0.00470 0.00720 0.00760 0.00000 0.00000 0.00060
O2 0.00670 0.00630 0.00790 0.00000 0.00000 -0.00050
O3 0.00660 0.00730 0.00820 0.00120 -0.00030 0.00050
loop_
_atom_site_label
_atom_site_fract_x
_atom_site_fract_y
_atom_site_fract_z
_atom_site_occupancy
_atom_site_U_iso_or_equiv
Mg1 0.00000 0.00000 0.00000 0.99000 0.00750
Mg2 0.99110 0.27714 0.25000 1.00100 0.00780
Si 0.42630 0.09380 0.25000 0.99300 0.00600
O1 0.76590 0.09140 0.25000 1.00000 0.00650
O2 0.22160 0.44690 0.25000 1.00000 0.00700
O3 0.27740 0.16284 0.03300 1.00000 0.00740
loop_
_cod_related_entry_id
_cod_related_entry_database
_cod_related_entry_code
1 AMCSD 0004938
