#------------------------------------------------------------------------------
#$Date: 2023-03-26 11:09:57 +0300 (Sun, 26 Mar 2023) $
#$Revision: 282068 $
#$URL: file:///home/coder/svn-repositories/cod/cif/9/01/30/9013095.cif $
#------------------------------------------------------------------------------
#
# This file is available in the Crystallography Open Database (COD),
# http://www.crystallography.net/. The original data for this entry
# were provided the American Mineralogist Crystal Structure Database,
# http://rruff.geo.arizona.edu/AMS/amcsd.php
#
# The file may be used within the scientific community so long as
# proper attribution is given to the journal article from which the
# data were obtained.
#
data_9013095
loop_
_publ_author_name
'Takeuchi, Y.'
'Yamanaka, T.'
'Haga, N.'
'Hirano, M.'
_publ_section_title
;
 High-temperature crystallography of olivines and spinels
 T = 530 degree C
;
_journal_name_full
'Materials Science of the Earth's Interior, edited by Sunagawa'
_journal_page_first              191
_journal_page_last               231
_journal_volume                  1984
_journal_year                    1984
_chemical_formula_sum            'Mg2 O4 Si'
_chemical_name_mineral           Forsterite
_space_group_IT_number           62
_symmetry_space_group_name_Hall  '-P 2c 2ab'
_symmetry_space_group_name_H-M   'P b n m'
_cell_angle_alpha                90
_cell_angle_beta                 90
_cell_angle_gamma                90
_cell_length_a                   4.767
_cell_length_b                   10.248
_cell_length_c                   6.0059
_cell_volume                     293.402
_database_code_amcsd             0014395
_diffrn_ambient_temperature      803.15
_exptl_crystal_density_diffrn    3.185
_cod_original_formula_sum        'Mg2 Si O4'
_cod_database_code               9013095
loop_
_space_group_symop_operation_xyz
x,y,z
x,y,1/2-z
-x,-y,1/2+z
1/2+x,1/2-y,1/2+z
1/2-x,1/2+y,1/2-z
1/2-x,1/2+y,z
1/2+x,1/2-y,-z
-x,-y,-z
loop_
_atom_site_aniso_label
_atom_site_aniso_U_11
_atom_site_aniso_U_22
_atom_site_aniso_U_33
_atom_site_aniso_U_12
_atom_site_aniso_U_13
_atom_site_aniso_U_23
Mg1 0.01220 0.01873 0.01188 -0.00057 -0.00174 -0.00299
Mg2 0.01508 0.01256 0.01462 0.00047 0.00000 0.00000
Si 0.00714 0.01016 0.00987 0.00010 0.00000 0.00000
O1 0.00771 0.01756 0.01316 0.00049 0.00000 0.00000
O2 0.01255 0.01043 0.01407 0.00000 0.00000 0.00000
O3 0.01301 0.01607 0.01279 0.00025 -0.00058 0.00343
loop_
_atom_site_label
_atom_site_fract_x
_atom_site_fract_y
_atom_site_fract_z
_atom_site_U_iso_or_equiv
Mg1 0.00000 0.00000 0.00000 0.01431
Mg2 0.99230 0.27838 0.25000 0.01406
Si 0.42670 0.09419 0.25000 0.00899
O1 0.76470 0.09160 0.25000 0.01279
O2 0.22190 0.44810 0.25000 0.01241
O3 0.27960 0.16302 0.03410 0.01393
loop_
_cod_related_entry_id
_cod_related_entry_database
_cod_related_entry_code
1 AMCSD 0014395
