#------------------------------------------------------------------------------
#$Date: 2023-03-26 11:09:57 +0300 (Sun, 26 Mar 2023) $
#$Revision: 282068 $
#$URL: file:///home/coder/svn-repositories/cod/cif/9/01/31/9013100.cif $
#------------------------------------------------------------------------------
#
# This file is available in the Crystallography Open Database (COD),
# http://www.crystallography.net/. The original data for this entry
# were provided the American Mineralogist Crystal Structure Database,
# http://rruff.geo.arizona.edu/AMS/amcsd.php
#
# The file may be used within the scientific community so long as
# proper attribution is given to the journal article from which the
# data were obtained.
#
data_9013100
loop_
_publ_author_name
'Takeuchi, Y.'
'Yamanaka, T.'
'Haga, N.'
'Hirano, M.'
_publ_section_title
;
 High-temperature crystallography of olivines and spinels
 T = 1400 degree C
;
_journal_name_full
'Materials Science of the Earth's Interior, edited by Sunagawa'
_journal_page_first              191
_journal_page_last               231
_journal_volume                  1984
_journal_year                    1984
_chemical_formula_sum            'Mg2 O4 Si'
_chemical_name_mineral           Forsterite
_space_group_IT_number           62
_symmetry_space_group_name_Hall  '-P 2c 2ab'
_symmetry_space_group_name_H-M   'P b n m'
_cell_angle_alpha                90
_cell_angle_beta                 90
_cell_angle_gamma                90
_cell_length_a                   4.819
_cell_length_b                   10.424
_cell_length_c                   6.099
_cell_volume                     306.373
_database_code_amcsd             0014400
_diffrn_ambient_temperature      1673.15
_exptl_crystal_density_diffrn    3.050
_cod_original_formula_sum        'Mg2 Si O4'
_cod_database_code               9013100
loop_
_space_group_symop_operation_xyz
x,y,z
x,y,1/2-z
-x,-y,1/2+z
1/2+x,1/2-y,1/2+z
1/2-x,1/2+y,1/2-z
1/2-x,1/2+y,z
1/2+x,1/2-y,-z
-x,-y,-z
loop_
_atom_site_aniso_label
_atom_site_aniso_U_11
_atom_site_aniso_U_22
_atom_site_aniso_U_33
_atom_site_aniso_U_12
_atom_site_aniso_U_13
_atom_site_aniso_U_23
Mg1 0.03541 0.04899 0.03750 -0.00229 -0.00491 -0.00773
Mg2 0.04247 0.03028 0.04655 0.00102 0.00000 0.00000
Si 0.02059 0.02620 0.03015 0.00025 0.00000 0.00000
O1 0.02588 0.04018 0.04372 0.00076 0.00000 0.00000
O2 0.03765 0.02312 0.04315 0.00000 0.00000 0.00000
O3 0.03529 0.03908 0.03976 0.00204 -0.00089 0.00998
loop_
_atom_site_label
_atom_site_fract_x
_atom_site_fract_y
_atom_site_fract_z
_atom_site_U_iso_or_equiv
Mg1 0.00000 0.00000 0.00000 0.04066
Mg2 0.99370 0.28030 0.25000 0.03990
Si 0.42690 0.09470 0.25000 0.02571
O1 0.76250 0.09110 0.25000 0.03660
O2 0.21950 0.45100 0.25000 0.03445
O3 0.28450 0.16300 0.03800 0.03825
loop_
_cod_related_entry_id
_cod_related_entry_database
_cod_related_entry_code
1 AMCSD 0014400
