#------------------------------------------------------------------------------
#$Date: 2023-03-26 11:09:57 +0300 (Sun, 26 Mar 2023) $
#$Revision: 282068 $
#$URL: file:///home/coder/svn-repositories/cod/cif/9/01/35/9013508.cif $
#------------------------------------------------------------------------------
#
# This file is available in the Crystallography Open Database (COD),
# http://www.crystallography.net/. The original data for this entry
# were provided the American Mineralogist Crystal Structure Database,
# http://rruff.geo.arizona.edu/AMS/amcsd.php
#
# The file may be used within the scientific community so long as
# proper attribution is given to the journal article from which the
# data were obtained.
#
data_9013508
loop_
_publ_author_name
'Patwe, S. J.'
'Achary, S. N.'
'Tyagi, A. K.'
_publ_section_title
;Lattice thermal expansion of zircon-type LuPO4 and LuVO4: A comparative study
;
_journal_name_full               'American Mineralogist'
_journal_page_first              98
_journal_page_last               104
_journal_paper_doi               10.2138/am.2009.2899
_journal_volume                  94
_journal_year                    2009
_chemical_compound_source        Synthetic
_chemical_formula_structural     LuPO4
_chemical_formula_sum            'Lu O4 P'
_space_group_IT_number           141
_symmetry_space_group_name_Hall  '-I 4bd 2'
_symmetry_space_group_name_H-M   'I 41/a m d :2'
_cell_angle_alpha                90
_cell_angle_beta                 90
_cell_angle_gamma                90
_cell_length_a                   6.7914
_cell_length_b                   6.7914
_cell_length_c                   5.9585
_cell_volume                     274.825
_database_code_amcsd             0004783
_diffrn_ambient_temperature      373.15
_exptl_crystal_density_diffrn    6.524
_cod_original_sg_symbol_H-M      'I 41/a m d'
_cod_original_formula_sum        'Lu P O4'
_cod_database_code               9013508
_amcsd_formula_title             LuPO4
loop_
_space_group_symop_operation_xyz
x,y,z
1/2+x,1/2+y,1/2+z
1/4-y,3/4-x,1/4+z
3/4-y,1/4-x,3/4+z
1/4+y,3/4+x,1/4-z
3/4+y,1/4+x,3/4-z
1/4+y,3/4-x,1/4-z
3/4+y,1/4-x,3/4-z
1/4-y,3/4+x,1/4+z
3/4-y,1/4+x,3/4+z
1/2+x,-y,1/2+z
+x,1/2-y,+z
1/2-x,y,1/2-z
-x,1/2+y,-z
1/2+x,y,1/2-z
+x,1/2+y,-z
1/2-x,-y,1/2+z
-x,1/2-y,+z
1/4+y,1/4+x,3/4+z
3/4+y,3/4+x,1/4+z
1/4-y,1/4-x,3/4-z
3/4-y,3/4-x,1/4-z
1/4-y,1/4+x,3/4-z
3/4-y,3/4+x,1/4-z
1/4+y,1/4-x,3/4+z
3/4+y,3/4-x,1/4+z
-x,y,z
1/2-x,1/2+y,1/2+z
x,-y,-z
1/2+x,1/2-y,1/2-z
-x,-y,-z
1/2-x,1/2-y,1/2-z
loop_
_atom_site_label
_atom_site_fract_x
_atom_site_fract_y
_atom_site_fract_z
_atom_site_U_iso_or_equiv
Lu 0.00000 0.75000 0.12500 0.00773
P 0.00000 0.25000 0.37500 0.02026
O 0.00000 0.42750 0.21600 0.01773
loop_
_cod_related_entry_id
_cod_related_entry_database
_cod_related_entry_code
1 AMCSD 0004783
