#------------------------------------------------------------------------------
#$Date: 2023-11-12 12:37:04 +0200 (Sun, 12 Nov 2023) $
#$Revision: 287555 $
#$URL: file:///home/coder/svn-repositories/cod/cif/9/01/31/9013183.cif $
#------------------------------------------------------------------------------
#
# This file is available in the Crystallography Open Database (COD),
# http://www.crystallography.net/. The original data for this entry
# were provided the American Mineralogist Crystal Structure Database,
# http://rruff.geo.arizona.edu/AMS/amcsd.php
#
# The file may be used within the scientific community so long as
# proper attribution is given to the journal article from which the
# data were obtained.
#
data_9013183
loop_
_publ_author_name
'Furukawa, A. S.'
'Komatsu, K.'
'Vanpeteghem, C. B.'
'Ohtani, E.'
_publ_section_title
;Neutron diffraction study of delta-AlOOD at high pressure and its implication
 for symmetrization of the hydrogen bond Note: P = 8.4 GPa Locality: synthetic
;
_journal_name_full               'American Mineralogist'
_journal_page_first              1558
_journal_page_last               1567
_journal_paper_doi               10.2138/am.2008.2849
_journal_volume                  93
_journal_year                    2008
_chemical_formula_sum            'Al D0.744 H0.256 O2'
_chemical_name_common            delta-AlOOD
_space_group_IT_number           31
_symmetry_space_group_name_Hall  'P -2 2ac'
_symmetry_space_group_name_H-M   'P 21 n m'
_cell_angle_alpha                90
_cell_angle_beta                 90
_cell_angle_gamma                90
_cell_length_a                   4.6393
_cell_length_b                   4.1477
_cell_length_c                   2.7978
_cell_volume                     53.836
_diffrn_ambient_pressure         8.4e+06
_exptl_crystal_density_diffrn    3.747
_cod_original_formula_sum        'Al O2 (D.744 H.256)'
_cod_database_code               9013183
loop_
_symmetry_equiv_pos_as_xyz
x,y,z
1/2+x,-y,1/2+z
x,y,-z
1/2+x,-y,1/2-z
loop_
_atom_site_label
_atom_site_fract_x
_atom_site_fract_y
_atom_site_fract_z
_atom_site_occupancy
_atom_site_U_iso_or_equiv
Al 0.00000 0.26500 0.00000 1.00000 0.00430
O1 0.34700 0.49400 0.00000 1.00000 0.00420
O2 0.64800 0.00600 0.00000 1.00000 0.00420
D 0.51700 0.21200 0.00000 0.74400 0.01300
H 0.51700 0.21200 0.00000 0.25600 0.01300
_database_code_amcsd 0004670
