#------------------------------------------------------------------------------
#$Date: 2023-03-26 11:09:57 +0300 (Sun, 26 Mar 2023) $
#$Revision: 282068 $
#$URL: file:///home/coder/svn-repositories/cod/cif/9/01/34/9013498.cif $
#------------------------------------------------------------------------------
#
# This file is available in the Crystallography Open Database (COD),
# http://www.crystallography.net/. The original data for this entry
# were provided the American Mineralogist Crystal Structure Database,
# http://rruff.geo.arizona.edu/AMS/amcsd.php
#
# The file may be used within the scientific community so long as
# proper attribution is given to the journal article from which the
# data were obtained.
#
data_9013498
loop_
_publ_author_name
'Kullerud, G.'
_publ_section_title
;
 The Fe S - Zn S system. A geological thermometer
;
_journal_name_full               'Norsk Geologisk Tidsskrift'
_journal_page_first              61
_journal_page_last               147
_journal_volume                  32
_journal_year                    1953
_chemical_formula_sum            'Fe0.442 S Zn0.558'
_chemical_name_mineral           Wurtzite-2H
_space_group_IT_number           186
_symmetry_space_group_name_Hall  'P 6c -2c'
_symmetry_space_group_name_H-M   'P 63 m c'
_cell_angle_alpha                90
_cell_angle_beta                 90
_cell_angle_gamma                120
_cell_length_a                   3.8357
_cell_length_b                   3.8357
_cell_length_c                   6.3002
_cell_volume                     80.274
_database_code_amcsd             0014935
_exptl_crystal_density_diffrn    3.857
_cod_original_formula_sum        '(Zn.558 Fe.442) S'
_cod_database_code               9013498
loop_
_space_group_symop_operation_xyz
x,y,z
-x,-x+y,1/2+z
x-y,x,1/2+z
-y,-x,z
-y,x-y,z
x-y,-y,1/2+z
-x,-y,1/2+z
x,x-y,z
-x+y,-x,z
y,x,1/2+z
y,-x+y,1/2+z
-x+y,y,z
loop_
_atom_site_label
_atom_site_fract_x
_atom_site_fract_y
_atom_site_fract_z
_atom_site_occupancy
Zn 0.33333 0.66667 0.00000 0.55800
Fe 0.33333 0.66667 0.00000 0.44200
S 0.33333 0.66667 0.37500 1.00000
loop_
_cod_related_entry_id
_cod_related_entry_database
_cod_related_entry_code
1 AMCSD 0014935
