#------------------------------------------------------------------------------
#$Date: 2023-03-26 11:09:57 +0300 (Sun, 26 Mar 2023) $
#$Revision: 282068 $
#$URL: file:///home/coder/svn-repositories/cod/cif/9/01/39/9013931.cif $
#------------------------------------------------------------------------------
#
# This file is available in the Crystallography Open Database (COD),
# http://www.crystallography.net/. The original data for this entry
# were provided the American Mineralogist Crystal Structure Database,
# http://rruff.geo.arizona.edu/AMS/amcsd.php
#
# The file may be used within the scientific community so long as
# proper attribution is given to the journal article from which the
# data were obtained.
#
data_9013931
loop_
_publ_author_name
'Hull, S.'
'Keen, D. A.'
_publ_section_title
;
 High-pressure polymorphism of the copper(I) halides:
 A neutron-diffraction study to ~10 GPa
 Note: P = 4.85 GPa
 Note: known as CuBr-IV
;
_journal_name_full               'Physical Review B'
_journal_page_first              5868
_journal_page_last               5885
_journal_paper_doi               10.1103/PhysRevB.50.5868
_journal_volume                  50
_journal_year                    1994
_chemical_formula_structural     CuBr
_chemical_formula_sum            'Br Cu'
_space_group_IT_number           129
_symmetry_space_group_name_Hall  'P 4ab 2ab -1ab'
_symmetry_space_group_name_H-M   'P 4/n m m :1'
_cell_angle_alpha                90
_cell_angle_beta                 90
_cell_angle_gamma                90
_cell_length_a                   3.9411
_cell_length_b                   3.9411
_cell_length_c                   5.0054
_cell_volume                     77.745
_database_code_amcsd             0015191
_diffrn_ambient_pressure         4.85e+06
_exptl_crystal_density_diffrn    6.128
_cod_original_sg_symbol_H-M      'P 4/n m m'
_cod_original_formula_sum        'Cu Br'
_cod_database_code               9013931
_amcsd_formula_title             CuBr
loop_
_space_group_symop_operation_xyz
x,y,z
1/2-y,1/2-x,z
y,x,-z
y,-x,-z
1/2-y,1/2+x,z
x,-y,z
1/2-x,1/2+y,-z
1/2+x,1/2+y,-z
-x,-y,z
1/2+y,1/2+x,z
-y,-x,-z
-y,x,-z
1/2+y,1/2-x,z
-x,y,z
1/2+x,1/2-y,-z
1/2-x,1/2-y,-z
loop_
_atom_site_label
_atom_site_fract_x
_atom_site_fract_y
_atom_site_fract_z
_atom_site_U_iso_or_equiv
Cu 0.00000 0.00000 0.00000 0.03306
Br 0.00000 0.50000 0.29310 0.01279
loop_
_cod_related_entry_id
_cod_related_entry_database
_cod_related_entry_code
1 AMCSD 0015191
