#------------------------------------------------------------------------------
#$Date: 2023-03-26 11:09:57 +0300 (Sun, 26 Mar 2023) $
#$Revision: 282068 $
#$URL: file:///home/coder/svn-repositories/cod/cif/9/01/33/9013317.cif $
#------------------------------------------------------------------------------
#
# This file is available in the Crystallography Open Database (COD),
# http://www.crystallography.net/. The original data for this entry
# were provided the American Mineralogist Crystal Structure Database,
# http://rruff.geo.arizona.edu/AMS/amcsd.php
#
# The file may be used within the scientific community so long as
# proper attribution is given to the journal article from which the
# data were obtained.
#
data_9013317
loop_
_publ_author_name
'Angel, R. J.'
'Gatta, G. C.'
'Boffa Ballaran, T.'
'Carpenter, M. A.'
_publ_section_title
;
 The mechanism of coupling in the modulated structure of nepheline
 Note: annealed
 Note: T = 15 K
;
_journal_name_full               'The Canadian Mineralogist'
_journal_page_first              1465
_journal_page_last               1476
_journal_paper_doi               10.3749/canmin.46.6.1465
_journal_volume                  46
_journal_year                    2008
_chemical_compound_source        'Snipe River, Tambani, Malawi'
_chemical_formula_sum            'Al3.84 K0.57 Na3.24 O16 Si4.16'
_chemical_name_mineral           Nepheline
_space_group_IT_number           173
_symmetry_space_group_name_Hall  'P 6c'
_symmetry_space_group_name_H-M   'P 63'
_cell_angle_alpha                90
_cell_angle_beta                 90
_cell_angle_gamma                120
_cell_length_a                   9.9801
_cell_length_b                   9.9801
_cell_length_c                   8.3707
_cell_volume                     722.042
_database_code_amcsd             0006208
_diffrn_ambient_temperature      15
_exptl_crystal_density_diffrn    2.637
_exptl_crystal_thermal_history   'annealed Note: T = 15 K'
_cod_original_cell_volume        722.041
_cod_original_formula_sum        'K.57 Na3.24 (Al3.84 Si4.16) O16'
_cod_database_code               9013317
loop_
_space_group_symop_operation_xyz
x,y,z
x-y,x,1/2+z
-y,x-y,z
-x,-y,1/2+z
-x+y,-x,z
y,-x+y,1/2+z
loop_
_atom_site_label
_atom_site_fract_x
_atom_site_fract_y
_atom_site_fract_z
_atom_site_occupancy
_atom_site_U_iso_or_equiv
K 0.00000 0.00000 0.00370 0.57000 0.02200
Na1 0.00000 0.00000 0.00370 0.24000 0.02200
Na2 0.55540 0.99760 0.50860 1.00000 0.01700
Al1 0.66667 0.33333 0.70100 0.48000 0.01200
Si1 0.66667 0.33333 0.70100 0.52000 0.01200
Al2 0.66667 0.33333 0.31360 0.48000 0.01400
Si2 0.66667 0.33333 0.31360 0.52000 0.01400
Al3 0.90670 0.66580 0.82220 0.48000 0.01400
Si3 0.90670 0.66580 0.82220 0.52000 0.01400
Al4 0.90730 0.66710 0.19610 0.48000 0.01200
Si4 0.90730 0.66710 0.19610 0.52000 0.01200
O1 0.66020 0.27970 0.50530 0.33333 0.02300
O2 0.97320 0.68140 0.00340 1.00000 0.03500
O3 0.82870 0.47810 0.25150 1.00000 0.03800
O4 0.83650 0.48890 0.76100 1.00000 0.03400
O5 0.77460 0.71520 0.82510 1.00000 0.01900
O6 0.77620 0.73150 0.20070 1.00000 0.02000
loop_
_cod_related_entry_id
_cod_related_entry_database
_cod_related_entry_code
1 AMCSD 0006208
