#------------------------------------------------------------------------------
#$Date: 2017-10-06 19:24:22 +0300 (Fri, 06 Oct 2017) $
#$Revision: 201816 $
#$URL: file:///home/coder/svn-repositories/cod/cif/9/01/41/9014161.cif $
#------------------------------------------------------------------------------
#
# This file is available in the Crystallography Open Database (COD),
# http://www.crystallography.net/. The original data for this entry
# were provided the American Mineralogist Crystal Structure Database,
# http://rruff.geo.arizona.edu/AMS/amcsd.php
#
# The file may be used within the scientific community so long as
# proper attribution is given to the journal article from which the
# data were obtained.
#
data_9014161
loop_
_publ_author_name
'Labbe, P.'
'Goreaud, M.'
'Raveau, B.'
'Monier, J.'
_publ_section_title
;
 Etude comparative des structures Mx W O3 de type bronze hexagonal.
 II. Evolution structurale dans la serie des bronzes Inx W O3
 (x equals a number between 0.12 and 0.33)
;
_journal_issue                   7
_journal_name_full               'Acta Crystallographica, Section B'
_journal_page_first              1557
_journal_page_last               1564
_journal_paper_doi               10.1107/S0567740879007123
_journal_volume                  35
_journal_year                    1979
_chemical_formula_sum            'In0.844 O9 W3'
_space_group_IT_number           193
_symmetry_space_group_name_Hall  '-P 6c 2'
_symmetry_space_group_name_H-M   'P 63/m c m'
_cell_angle_alpha                90
_cell_angle_beta                 90
_cell_angle_gamma                120
_cell_length_a                   7.3673
_cell_length_b                   7.3673
_cell_length_c                   7.5020
_cell_volume                     352.634
_database_code_amcsd             0009680
_exptl_crystal_density_diffrn    7.463
_cod_duplicate_entry             1001044
_cod_original_formula_sum        'W3 O9 In.844'
_cod_database_code               9014161
_amcsd_formula_title             'In0.28 O3 W'
loop_
_space_group_symop_operation_xyz
x,y,z
-x,-x+y,z
x,x-y,-z
-x+y,-x,1/2-z
x-y,x,1/2+z
-y,-x,1/2+z
y,x,1/2-z
y,-x+y,-z
-y,x-y,z
x-y,-y,z
-x+y,y,-z
x,y,1/2-z
-x,-y,1/2+z
x,x-y,1/2+z
-x,-x+y,1/2-z
x-y,x,-z
-x+y,-x,z
y,x,z
-y,-x,-z
-y,x-y,1/2-z
y,-x+y,1/2+z
-x+y,y,1/2+z
x-y,-y,1/2-z
-x,-y,-z
loop_
_atom_site_label
_atom_site_fract_x
_atom_site_fract_y
_atom_site_fract_z
_atom_site_occupancy
W1 0.00000 0.48098 0.25000 1.00000
O1 0.21090 0.42130 0.22240 0.50000
O2 0.00000 0.46460 -0.00160 0.50000
In1 0.00000 0.00000 0.07790 0.18800
In2 0.00000 0.06670 0.00000 0.07800
loop_
_cod_related_entry_id
_cod_related_entry_database
_cod_related_entry_code
1 AMCSD 0009680
