#------------------------------------------------------------------------------
#$Date: 2017-10-06 19:24:22 +0300 (Fri, 06 Oct 2017) $
#$Revision: 201816 $
#$URL: file:///home/coder/svn-repositories/cod/cif/9/01/44/9014419.cif $
#------------------------------------------------------------------------------
#
# This file is available in the Crystallography Open Database (COD),
# http://www.crystallography.net/. The original data for this entry
# were provided the American Mineralogist Crystal Structure Database,
# http://rruff.geo.arizona.edu/AMS/amcsd.php
#
# The file may be used within the scientific community so long as
# proper attribution is given to the journal article from which the
# data were obtained.
#
data_9014419
loop_
_publ_author_name
'Wyckoff, R.'
_publ_section_title
;
 The Crystal Structure of Hydrazine Dihydrochloride
 _cod_database_code 1010601
;
_journal_name_full               'American Journal of Science'
_journal_page_first              15
_journal_page_last               22
_journal_volume                  5
_journal_year                    1923
_chemical_formula_sum            'Cl N'
_space_group_IT_number           205
_symmetry_space_group_name_Hall  '-P 2ac 2ab 3'
_symmetry_space_group_name_H-M   'P a -3'
_cell_angle_alpha                90
_cell_angle_beta                 90
_cell_angle_gamma                90
_cell_length_a                   7.89
_cell_length_b                   7.89
_cell_length_c                   7.89
_cell_volume                     491.169
_database_code_amcsd             0017484
_exptl_crystal_density_diffrn    1.338
_cod_duplicate_entry             1010601
_cod_original_sg_symbol_H-M      'P a 3'
_cod_original_formula_sum        'N Cl'
_cod_database_code               9014419
_amcsd_formula_title             'Cl2 H6 N2'
loop_
_space_group_symop_operation_xyz
x,y,z
1/2+z,x,1/2-y
z,1/2-x,1/2+y
1/2-z,1/2+x,y
-z,-x,-y
1/2+y,1/2-z,-x
1/2-y,-z,1/2+x
-y,1/2+z,1/2-x
y,z,x
x,1/2-y,1/2+z
1/2-x,1/2+y,z
1/2+x,y,1/2-z
-x,-y,-z
1/2-z,-x,1/2+y
-z,1/2+x,1/2-y
1/2+z,1/2-x,-y
z,x,y
1/2-y,1/2+z,x
1/2+y,z,1/2-x
y,1/2-z,1/2+x
-y,-z,-x
-x,1/2+y,1/2-z
1/2+x,1/2-y,-z
1/2-x,-y,1/2+z
loop_
_atom_site_label
_atom_site_fract_x
_atom_site_fract_y
_atom_site_fract_z
_atom_site_attached_hydrogens
N1 0.04000 0.04000 0.04000 2
Cl1 0.27000 0.27000 0.27000 1
loop_
_cod_related_entry_id
_cod_related_entry_database
_cod_related_entry_code
1 AMCSD 0017484
