#------------------------------------------------------------------------------
#$Date: 2017-10-06 19:24:22 +0300 (Fri, 06 Oct 2017) $
#$Revision: 201816 $
#$URL: file:///home/coder/svn-repositories/cod/cif/9/01/59/9015916.cif $
#------------------------------------------------------------------------------
#
# This file is available in the Crystallography Open Database (COD),
# http://www.crystallography.net/. The original data for this entry
# were provided the American Mineralogist Crystal Structure Database,
# http://rruff.geo.arizona.edu/AMS/amcsd.php
#
# The file may be used within the scientific community so long as
# proper attribution is given to the journal article from which the
# data were obtained.
#
data_9015916
loop_
_publ_author_name
'Havighurst, R.'
_publ_section_title
;
 Parameters in crystal structure. The mercurous halides
 _cod_database_code 1011078
;
_journal_name_full               'Journal of the American Chemical Society'
_journal_page_first              2113
_journal_page_last               2125
_journal_paper_doi               10.1021/ja01419a016
_journal_volume                  48
_journal_year                    1926
_chemical_formula_sum            'Hg I'
_chemical_name_mineral           Moschelite
_space_group_IT_number           136
_symmetry_space_group_name_Hall  '-P 4n 2n'
_symmetry_space_group_name_H-M   'P 42/m n m'
_cell_angle_alpha                90
_cell_angle_beta                 90
_cell_angle_gamma                90
_cell_length_a                   4.92
_cell_length_b                   4.92
_cell_length_c                   11.61
_cell_volume                     281.036
_database_code_amcsd             0017976
_exptl_crystal_density_diffrn    7.740
_cod_duplicate_entry             1011078
_cod_database_code               9015916
loop_
_space_group_symop_operation_xyz
x,y,z
-y,-x,z
y,x,-z
1/2+y,1/2-x,1/2-z
1/2-y,1/2+x,1/2+z
1/2+x,1/2-y,1/2+z
1/2-x,1/2+y,1/2-z
x,y,-z
-x,-y,z
y,x,z
-y,-x,-z
1/2-y,1/2+x,1/2-z
1/2+y,1/2-x,1/2+z
1/2-x,1/2+y,1/2+z
1/2+x,1/2-y,1/2-z
-x,-y,-z
loop_
_atom_site_label
_atom_site_fract_x
_atom_site_fract_y
_atom_site_fract_z
Hg1 0.00000 0.00000 0.11600
I1 0.00000 0.00000 0.34700
loop_
_cod_related_entry_id
_cod_related_entry_database
_cod_related_entry_code
1 AMCSD 0017976
