#------------------------------------------------------------------------------
#$Date: 2017-10-06 19:24:22 +0300 (Fri, 06 Oct 2017) $
#$Revision: 201816 $
#$URL: file:///home/coder/svn-repositories/cod/cif/9/01/53/9015300.cif $
#------------------------------------------------------------------------------
#
# This file is available in the Crystallography Open Database (COD),
# http://www.crystallography.net/. The original data for this entry
# were provided the American Mineralogist Crystal Structure Database,
# http://rruff.geo.arizona.edu/AMS/amcsd.php
#
# The file may be used within the scientific community so long as
# proper attribution is given to the journal article from which the
# data were obtained.
#
data_9015300
loop_
_publ_author_name
'Rial, C.'
'Moran, E.'
'Alario-Franco M'
'Amador, U.'
'Martinez, J.'
'Rodriguez-Carvajal J'
'Andersen, N.'
_publ_section_title
;
 Effects of extra oxygen on the structure and superconductivity of
 La2-xCaxCuO4+y prepared by chemical oxidation
 _cod_database_code 1006180
;
_journal_name_full               'Physica C'
_journal_page_first              277
_journal_page_last               293
_journal_volume                  297
_journal_year                    1998
_chemical_formula_sum            'Ca0.08 Cu La1.92 O3.99'
_space_group_IT_number           64
_symmetry_space_group_name_Hall  '-B 2ab 2'
_symmetry_space_group_name_H-M   'B m a b'
_cell_angle_alpha                90
_cell_angle_beta                 90
_cell_angle_gamma                90
_cell_length_a                   5.3271
_cell_length_b                   5.3793
_cell_length_c                   13.1327
_cell_volume                     376.332
_database_code_amcsd             0015089
_exptl_crystal_density_diffrn    7.012
_cod_duplicate_entry             1006180
_cod_original_formula_sum        '(La1.92 Ca.08) Cu O3.99'
_cod_database_code               9015300
_amcsd_formula_title             'Ca0.08 Cu La1.92 O4'
loop_
_space_group_symop_operation_xyz
x,y,z
1/2+x,y,1/2+z
x,1/2+y,1/2-z
1/2+x,1/2+y,-z
-x,1/2-y,1/2+z
1/2-x,1/2-y,+z
-x,y,z
1/2-x,y,1/2+z
x,-y,-z
1/2+x,-y,1/2-z
x,1/2-y,1/2+z
1/2+x,1/2-y,+z
-x,1/2+y,1/2-z
1/2-x,1/2+y,-z
-x,-y,-z
1/2-x,-y,1/2-z
loop_
_atom_site_label
_atom_site_fract_x
_atom_site_fract_y
_atom_site_fract_z
_atom_site_occupancy
La1 0.00000 0.00490 0.36130 0.96000
Ca1 0.00000 0.00490 0.36130 0.04000
Cu1 0.00000 0.00000 0.00000 1.00000
O1 0.25000 0.25000 0.00690 1.01000
O2 0.00000 -0.03250 0.18240 0.99500
loop_
_cod_related_entry_id
_cod_related_entry_database
_cod_related_entry_code
1 AMCSD 0015089
