#------------------------------------------------------------------------------
#$Date: 2017-10-06 19:24:22 +0300 (Fri, 06 Oct 2017) $
#$Revision: 201816 $
#$URL: file:///home/coder/svn-repositories/cod/cif/9/01/58/9015861.cif $
#------------------------------------------------------------------------------
#
# This file is available in the Crystallography Open Database (COD),
# http://www.crystallography.net/. The original data for this entry
# were provided the American Mineralogist Crystal Structure Database,
# http://rruff.geo.arizona.edu/AMS/amcsd.php
#
# The file may be used within the scientific community so long as
# proper attribution is given to the journal article from which the
# data were obtained.
#
data_9015861
loop_
_publ_author_name
'Zema, M.'
'Ventruti, G.'
'Lacalamita, M.'
'Scordari, F.'
_publ_section_title
;
 Kinetics of Fe-oxidation/deprotonation process in Fe-rich phlogopite
 under isothermal conditions
 Sample: SA1_14n
;
_journal_name_full               'American Mineralogist'
_journal_page_first              1458
_journal_page_last               1466
_journal_paper_doi               10.2138/am.2010.3523
_journal_volume                  95
_journal_year                    2010
_chemical_compound_source        'Mt. Vulture, Potenza, Italy'
_chemical_formula_sum
'Al1.33 Ba0.05 F0.17 Fe0.807 H1.553 K0.83 Mg2.193 Na0.07 O11.83 Si2.67'
_chemical_name_mineral           Phlogopite
_space_group_IT_number           12
_symmetry_space_group_name_Hall  '-C 2y'
_symmetry_space_group_name_H-M   'C 1 2/m 1'
_cell_angle_alpha                90
_cell_angle_beta                 100.017
_cell_angle_gamma                90
_cell_length_a                   5.3403
_cell_length_b                   9.2481
_cell_length_c                   10.2327
_cell_volume                     497.665
_database_code_amcsd             0017714
_exptl_crystal_density_diffrn    2.965
_cod_original_formula_sum
'K.83 Na.07 Ba.05 (Mg2.193 Fe.807) (Si2.67 Al1.33) O11.83 F.17 H1.553'
_cod_database_code               9015861
loop_
_space_group_symop_operation_xyz
x,y,z
1/2+x,1/2+y,z
x,-y,z
1/2+x,1/2-y,z
-x,y,-z
1/2-x,1/2+y,-z
-x,-y,-z
1/2-x,1/2-y,-z
loop_
_atom_site_aniso_label
_atom_site_aniso_U_11
_atom_site_aniso_U_22
_atom_site_aniso_U_33
_atom_site_aniso_U_12
_atom_site_aniso_U_13
_atom_site_aniso_U_23
K 0.03050 0.03120 0.03090 0.00000 -0.00540 0.00000
Na 0.03050 0.03120 0.03090 0.00000 -0.00540 0.00000
Ba 0.03050 0.03120 0.03090 0.00000 -0.00540 0.00000
Mg1 0.00910 0.00830 0.01400 0.00000 -0.00399 0.00000
Fe1 0.00910 0.00830 0.01400 0.00000 -0.00399 0.00000
Mg2 0.00745 0.01402 0.01212 0.00000 -0.00120 0.00000
Fe2 0.00745 0.01402 0.01212 0.00000 -0.00120 0.00000
Si 0.00918 0.01024 0.01073 -0.00002 -0.00182 -0.00013
Al 0.00918 0.01024 0.01073 -0.00002 -0.00182 -0.00013
O1 0.01750 0.02510 0.01610 -0.00550 -0.00440 -0.00330
O2 0.02580 0.01360 0.01640 0.00000 -0.00070 0.00000
O3 0.01190 0.01250 0.01120 -0.00010 -0.00200 -0.00030
O4 0.01280 0.01470 0.01120 0.00000 -0.00160 0.00000
F4 0.01280 0.01470 0.01120 0.00000 -0.00160 0.00000
loop_
_atom_site_label
_atom_site_fract_x
_atom_site_fract_y
_atom_site_fract_z
_atom_site_occupancy
_atom_site_U_iso_or_equiv
K 0.00000 0.50000 0.00000 0.83000 0.03090
Na 0.00000 0.50000 0.00000 0.07000 0.03090
Ba 0.00000 0.50000 0.00000 0.05000 0.03090
Mg1 0.00000 0.00000 0.50000 0.73940 0.01020
Fe1 0.00000 0.00000 0.50000 0.26060 0.01020
Mg2 0.00000 0.33601 0.50000 0.72670 0.01130
Fe2 0.00000 0.33601 0.50000 0.27330 0.01130
Si 0.07501 0.16686 0.22558 0.66750 0.01000
Al 0.07501 0.16686 0.22558 0.33250 0.01000
O1 0.32980 0.22594 0.16828 1.00000 0.01940
O2 0.00760 0.00000 0.16904 1.00000 0.01920
O3 0.13088 0.16765 0.39154 1.00000 0.01190
O4 0.13200 0.50000 0.39921 0.91500 0.01300
F4 0.13200 0.50000 0.39921 0.08500 0.01300
H 0.10900 0.50000 0.31700 0.77650 0.07000
loop_
_cod_related_entry_id
_cod_related_entry_database
_cod_related_entry_code
1 AMCSD 0017714
