#------------------------------------------------------------------------------
#$Date: 2017-10-06 19:24:22 +0300 (Fri, 06 Oct 2017) $
#$Revision: 201816 $
#$URL: file:///home/coder/svn-repositories/cod/cif/9/01/53/9015398.cif $
#------------------------------------------------------------------------------
#
# This file is available in the Crystallography Open Database (COD),
# http://www.crystallography.net/. The original data for this entry
# were provided the American Mineralogist Crystal Structure Database,
# http://rruff.geo.arizona.edu/AMS/amcsd.php
#
# The file may be used within the scientific community so long as
# proper attribution is given to the journal article from which the
# data were obtained.
#
data_9015398
loop_
_publ_author_name
'Olsen, L. A.'
'Balic Zunic, T.'
'Makovicky, E.'
_publ_section_title
;
 High-pressure anisotropic distortion of Pb3Bi2S6: a pressure-induced,
 reversible phase transition with migration of chemical bonds
 Note: P = 0.0001 GPa
 Note: occupancies not refined
;
_journal_name_full               'Inorganic Chemistry'
_journal_page_first              6756
_journal_page_last               6762
_journal_paper_doi               10.1021/ic800380p
_journal_volume                  47
_journal_year                    2008
_chemical_compound_source        Synthetic
_chemical_formula_sum            'Bi2 Pb3 S6'
_chemical_name_mineral           Lillianite
_space_group_IT_number           63
_symmetry_space_group_name_Hall  '-B 2 2b'
_symmetry_space_group_name_H-M   'B b m m'
_cell_angle_alpha                90
_cell_angle_beta                 90
_cell_angle_gamma                90
_cell_length_a                   13.540
_cell_length_b                   20.637
_cell_length_c                   4.1103
_cell_volume                     1148.520
_database_code_amcsd             0018400
_exptl_crystal_density_diffrn    7.125
_cod_original_cell_volume        1148.521
_cod_original_formula_sum        'Pb3 Bi2 S6'
_cod_database_code               9015398
loop_
_space_group_symop_operation_xyz
x,y,z
1/2+x,y,1/2+z
-x,1/2+y,z
1/2-x,1/2+y,1/2+z
x,1/2-y,-z
1/2+x,1/2-y,1/2-z
x,y,-z
1/2+x,y,1/2-z
-x,-y,z
1/2-x,-y,1/2+z
x,1/2-y,z
1/2+x,1/2-y,1/2+z
-x,1/2+y,-z
1/2-x,1/2+y,1/2-z
-x,-y,-z
1/2-x,-y,1/2-z
loop_
_atom_site_label
_atom_site_fract_x
_atom_site_fract_y
_atom_site_fract_z
_atom_site_occupancy
_atom_site_U_iso_or_equiv
PbM1 0.09066 0.13373 0.50000 0.50000 0.01400
BiM1 0.09066 0.13373 0.50000 0.50000 0.01400
BiM2 0.36273 0.04933 0.50000 0.50000 0.01283
PbM2 0.36273 0.04933 0.50000 0.50000 0.01283
PbM3 0.32657 0.25000 0.00000 1.00000 0.03710
S1 0.23628 0.09544 0.00000 1.00000 0.02360
S2 0.00000 0.00000 0.50000 1.00000 0.01480
S3 0.18371 0.25000 0.50000 1.00000 0.01330
S4 0.45498 0.16496 0.50000 1.00000 0.01600
loop_
_cod_related_entry_id
_cod_related_entry_database
_cod_related_entry_code
1 AMCSD 0018400
