#------------------------------------------------------------------------------
#$Date: 2017-10-06 19:24:22 +0300 (Fri, 06 Oct 2017) $
#$Revision: 201816 $
#$URL: file:///home/coder/svn-repositories/cod/cif/9/01/53/9015333.cif $
#------------------------------------------------------------------------------
#
# This file is available in the Crystallography Open Database (COD),
# http://www.crystallography.net/. The original data for this entry
# were provided the American Mineralogist Crystal Structure Database,
# http://rruff.geo.arizona.edu/AMS/amcsd.php
#
# The file may be used within the scientific community so long as
# proper attribution is given to the journal article from which the
# data were obtained.
#
data_9015333
loop_
_publ_author_name
'Crichton, W. A.'
'Parise, J. B.'
'Muller, H.'
'Breger, J.'
'Marshall, W. G.'
'Welch, M. D.'
_publ_section_title
;
 Synthesis and structure of magnesium hydroxide fluoride, Mg(OH)F:
 a topological intermediate between brucite- and rutile-type structures
;
_journal_name_full               'Mineralogical Magazine'
_journal_page_first              25
_journal_page_last               36
_journal_paper_doi               10.1180/minmag.2012.076.1.25
_journal_volume                  76
_journal_year                    2012
_chemical_compound_source        Synthetic
_chemical_formula_sum            'F H Mg O'
_space_group_IT_number           62
_symmetry_space_group_name_Hall  '-P 2ac 2n'
_symmetry_space_group_name_H-M   'P n m a'
_cell_angle_alpha                90
_cell_angle_beta                 90
_cell_angle_gamma                90
_cell_length_a                   10.1299
_cell_length_b                   3.0723
_cell_length_c                   4.676
_cell_volume                     145.527
_database_code_amcsd             0019002
_exptl_crystal_density_diffrn    2.753
_cod_original_formula_sum        'Mg O H F'
_cod_database_code               9015333
_amcsd_formula_title             Mg(OH)F
loop_
_space_group_symop_operation_xyz
x,y,z
x,1/2-y,z
-x,1/2+y,-z
1/2-x,1/2+y,1/2+z
1/2+x,1/2-y,1/2-z
1/2+x,y,1/2-z
1/2-x,-y,1/2+z
-x,-y,-z
loop_
_atom_site_label
_atom_site_fract_x
_atom_site_fract_y
_atom_site_fract_z
_atom_site_U_iso_or_equiv
Mg 0.13220 0.75000 0.51090 0.00230
O 0.45170 0.75000 0.78160 0.00130
H 0.92470 0.75000 0.91600 0.06990
F 0.20470 0.25000 0.74730 0.00610
loop_
_cod_related_entry_id
_cod_related_entry_database
_cod_related_entry_code
1 AMCSD 0019002
