#------------------------------------------------------------------------------
#$Date: 2017-10-06 19:24:22 +0300 (Fri, 06 Oct 2017) $
#$Revision: 201816 $
#$URL: file:///home/coder/svn-repositories/cod/cif/9/01/50/9015092.cif $
#------------------------------------------------------------------------------
#
# This file is available in the Crystallography Open Database (COD),
# http://www.crystallography.net/. The original data for this entry
# were provided the American Mineralogist Crystal Structure Database,
# http://rruff.geo.arizona.edu/AMS/amcsd.php
#
# The file may be used within the scientific community so long as
# proper attribution is given to the journal article from which the
# data were obtained.
#
data_9015092
loop_
_publ_author_name
'Kjekshus, A.'
'Peterzens, P. G.'
'Rakke, T.'
'Andresen, A. F.'
_publ_section_title
;
 Compounds with the marcasite type crystal structure. XIII. Structural and
 magnetic properties of CrtFe1-tAs2, CrtFe1-tSb2, Fe1-tNitAs2 and Fe1-tNitSb2
;
_journal_name_full               'Acta Chemica Scandinavica A'
_journal_page_first              469
_journal_page_last               480
_journal_volume                  33
_journal_year                    1979
_chemical_formula_sum            'As2 Fe0.37 Ni0.63'
_space_group_IT_number           58
_symmetry_space_group_name_Hall  '-P 2 2n'
_symmetry_space_group_name_H-M   'P n n m'
_cell_angle_alpha                90
_cell_angle_beta                 90
_cell_angle_gamma                90
_cell_length_a                   5.3971
_cell_length_b                   6.1893
_cell_length_c                   2.9539
_cell_volume                     98.673
_database_code_amcsd             0011951
_exptl_crystal_density_diffrn    6.983
_cod_original_formula_sum        '(Fe.37 Ni.63) As2'
_cod_database_code               9015092
_amcsd_formula_title             Cr.63Fe.37As2
loop_
_space_group_symop_operation_xyz
x,y,z
1/2+x,1/2-y,1/2+z
1/2-x,1/2+y,1/2-z
1/2-x,1/2+y,1/2+z
1/2+x,1/2-y,1/2-z
x,y,-z
-x,-y,z
-x,-y,-z
loop_
_atom_site_label
_atom_site_fract_x
_atom_site_fract_y
_atom_site_fract_z
_atom_site_occupancy
Fe 0.00000 0.00000 0.00000 0.37000
Ni 0.00000 0.00000 0.00000 0.63000
As 0.17060 0.36810 0.00000 1.00000
loop_
_cod_related_entry_id
_cod_related_entry_database
_cod_related_entry_code
1 AMCSD 0011951
