#------------------------------------------------------------------------------
#$Date: 2017-10-06 19:24:22 +0300 (Fri, 06 Oct 2017) $
#$Revision: 201816 $
#$URL: file:///home/coder/svn-repositories/cod/cif/9/01/52/9015263.cif $
#------------------------------------------------------------------------------
#
# This file is available in the Crystallography Open Database (COD),
# http://www.crystallography.net/. The original data for this entry
# were provided the American Mineralogist Crystal Structure Database,
# http://rruff.geo.arizona.edu/AMS/amcsd.php
#
# The file may be used within the scientific community so long as
# proper attribution is given to the journal article from which the
# data were obtained.
#
data_9015263
loop_
_publ_author_name
'Teichert, W.'
'Klemm, W.'
_publ_section_title
;
 Zur Kenntnis der Hydrosulfide und Hydroselenide der Alkalimetalle
 _cod_database_code 1010906
;
_journal_name_full
'Zeitschrift fur Anorganische und Allgemeine Chemie'
_journal_page_first              86
_journal_page_last               98
_journal_volume                  243
_journal_year                    1939
_chemical_formula_sum            'Cs S'
_space_group_IT_number           221
_symmetry_space_group_name_Hall  '-P 4 2 3'
_symmetry_space_group_name_H-M   'P m -3 m'
_cell_angle_alpha                90
_cell_angle_beta                 90
_cell_angle_gamma                90
_cell_length_a                   4.302
_cell_length_b                   4.302
_cell_length_c                   4.302
_cell_volume                     79.618
_database_code_amcsd             0017634
_exptl_crystal_density_diffrn    3.441
_cod_duplicate_entry             1010906
_cod_original_sg_symbol_H-M      'P m 3 m'
_cod_database_code               9015263
_amcsd_formula_title             'Cs H S'
loop_
_space_group_symop_operation_xyz
x,y,z
z,-x,y
-y,z,-x
x,-y,z
-z,x,-y
y,-z,x
-x,y,-z
x,-z,-y
-z,y,x
y,-x,-z
-x,z,y
z,-y,-x
-y,x,z
x,z,y
-z,-y,-x
y,x,z
-x,-z,-y
z,y,x
-y,-x,-z
z,x,-y
-y,-z,x
x,y,-z
-z,-x,y
y,z,-x
-x,-y,z
-z,x,y
y,-z,-x
-x,y,z
z,-x,-y
-y,z,x
x,-y,-z
-x,z,-y
z,-y,x
-y,x,-z
x,-z,y
-z,y,-x
y,-x,z
-x,-z,y
z,y,-x
-y,-x,z
x,z,-y
-z,-y,x
y,x,-z
-z,-x,-y
y,z,x
-x,-y,-z
z,x,y
-y,-z,-x
loop_
_atom_site_label
_atom_site_fract_x
_atom_site_fract_y
_atom_site_fract_z
_atom_site_attached_hydrogens
Cs1 0.00000 0.00000 0.00000 0
S1 0.50000 0.50000 0.50000 1
loop_
_cod_related_entry_id
_cod_related_entry_database
_cod_related_entry_code
1 AMCSD 0017634
