#------------------------------------------------------------------------------
#$Date: 2017-10-06 19:24:22 +0300 (Fri, 06 Oct 2017) $
#$Revision: 201816 $
#$URL: file:///home/coder/svn-repositories/cod/cif/9/01/64/9016485.cif $
#------------------------------------------------------------------------------
#
# This file is available in the Crystallography Open Database (COD),
# http://www.crystallography.net/. The original data for this entry
# were provided the American Mineralogist Crystal Structure Database,
# http://rruff.geo.arizona.edu/AMS/amcsd.php
#
# The file may be used within the scientific community so long as
# proper attribution is given to the journal article from which the
# data were obtained.
#
data_9016485
loop_
_publ_author_name
'Ballestracci, R.'
'Bertaut, E.'
_publ_section_title
;
 Etude crystallographique de sulfures de terres rares et de sodium
 _cod_database_code 1008970
;
_journal_name_full
'Bulletin de la Societe Francaise de Mineralogie et de Cristallographie'
_journal_page_first              512
_journal_page_last               517
_journal_volume                  87
_journal_year                    1964
_chemical_formula_sum            'Na0.5 Pr0.5 S'
_space_group_IT_number           225
_symmetry_space_group_name_Hall  '-F 4 2 3'
_symmetry_space_group_name_H-M   'F m -3 m'
_cell_angle_alpha                90
_cell_angle_beta                 90
_cell_angle_gamma                90
_cell_length_a                   5.777
_cell_length_b                   5.777
_cell_length_c                   5.777
_cell_volume                     192.800
_database_code_amcsd             0016833
_exptl_crystal_density_diffrn    3.928
_cod_duplicate_entry             1008970
_cod_original_sg_symbol_H-M      'F m 3 m'
_cod_original_formula_sum        '(Na.5 Pr.5) S'
_cod_database_code               9016485
_amcsd_formula_title             'Na Pr S2'
loop_
_space_group_symop_operation_xyz
x,y,z
x,1/2+y,1/2+z
1/2+x,y,1/2+z
1/2+x,1/2+y,z
z,-x,y
z,1/2-x,1/2+y
1/2+z,-x,1/2+y
1/2+z,1/2-x,y
-y,z,-x
-y,1/2+z,1/2-x
1/2-y,z,1/2-x
1/2-y,1/2+z,-x
x,-y,z
x,1/2-y,1/2+z
1/2+x,-y,1/2+z
1/2+x,1/2-y,z
-z,x,-y
-z,1/2+x,1/2-y
1/2-z,x,1/2-y
1/2-z,1/2+x,-y
y,-z,x
y,1/2-z,1/2+x
1/2+y,-z,1/2+x
1/2+y,1/2-z,x
-x,y,-z
-x,1/2+y,1/2-z
1/2-x,y,1/2-z
1/2-x,1/2+y,-z
x,-z,-y
x,1/2-z,1/2-y
1/2+x,-z,1/2-y
1/2+x,1/2-z,-y
-z,y,x
-z,1/2+y,1/2+x
1/2-z,y,1/2+x
1/2-z,1/2+y,x
y,-x,-z
y,1/2-x,1/2-z
1/2+y,-x,1/2-z
1/2+y,1/2-x,-z
-x,z,y
-x,1/2+z,1/2+y
1/2-x,z,1/2+y
1/2-x,1/2+z,y
z,-y,-x
z,1/2-y,1/2-x
1/2+z,-y,1/2-x
1/2+z,1/2-y,-x
-y,x,z
-y,1/2+x,1/2+z
1/2-y,x,1/2+z
1/2-y,1/2+x,z
x,z,y
x,1/2+z,1/2+y
1/2+x,z,1/2+y
1/2+x,1/2+z,y
-z,-y,-x
-z,1/2-y,1/2-x
1/2-z,-y,1/2-x
1/2-z,1/2-y,-x
y,x,z
y,1/2+x,1/2+z
1/2+y,x,1/2+z
1/2+y,1/2+x,z
-x,-z,-y
-x,1/2-z,1/2-y
1/2-x,-z,1/2-y
1/2-x,1/2-z,-y
z,y,x
z,1/2+y,1/2+x
1/2+z,y,1/2+x
1/2+z,1/2+y,x
-y,-x,-z
-y,1/2-x,1/2-z
1/2-y,-x,1/2-z
1/2-y,1/2-x,-z
z,x,-y
z,1/2+x,1/2-y
1/2+z,x,1/2-y
1/2+z,1/2+x,-y
-y,-z,x
-y,1/2-z,1/2+x
1/2-y,-z,1/2+x
1/2-y,1/2-z,x
x,y,-z
x,1/2+y,1/2-z
1/2+x,y,1/2-z
1/2+x,1/2+y,-z
-z,-x,y
-z,1/2-x,1/2+y
1/2-z,-x,1/2+y
1/2-z,1/2-x,y
y,z,-x
y,1/2+z,1/2-x
1/2+y,z,1/2-x
1/2+y,1/2+z,-x
-x,-y,z
-x,1/2-y,1/2+z
1/2-x,-y,1/2+z
1/2-x,1/2-y,z
-z,x,y
-z,1/2+x,1/2+y
1/2-z,x,1/2+y
1/2-z,1/2+x,y
y,-z,-x
y,1/2-z,1/2-x
1/2+y,-z,1/2-x
1/2+y,1/2-z,-x
-x,y,z
-x,1/2+y,1/2+z
1/2-x,y,1/2+z
1/2-x,1/2+y,z
z,-x,-y
z,1/2-x,1/2-y
1/2+z,-x,1/2-y
1/2+z,1/2-x,-y
-y,z,x
-y,1/2+z,1/2+x
1/2-y,z,1/2+x
1/2-y,1/2+z,x
x,-y,-z
x,1/2-y,1/2-z
1/2+x,-y,1/2-z
1/2+x,1/2-y,-z
-x,z,-y
-x,1/2+z,1/2-y
1/2-x,z,1/2-y
1/2-x,1/2+z,-y
z,-y,x
z,1/2-y,1/2+x
1/2+z,-y,1/2+x
1/2+z,1/2-y,x
-y,x,-z
-y,1/2+x,1/2-z
1/2-y,x,1/2-z
1/2-y,1/2+x,-z
x,-z,y
x,1/2-z,1/2+y
1/2+x,-z,1/2+y
1/2+x,1/2-z,y
-z,y,-x
-z,1/2+y,1/2-x
1/2-z,y,1/2-x
1/2-z,1/2+y,-x
y,-x,z
y,1/2-x,1/2+z
1/2+y,-x,1/2+z
1/2+y,1/2-x,z
-x,-z,y
-x,1/2-z,1/2+y
1/2-x,-z,1/2+y
1/2-x,1/2-z,y
z,y,-x
z,1/2+y,1/2-x
1/2+z,y,1/2-x
1/2+z,1/2+y,-x
-y,-x,z
-y,1/2-x,1/2+z
1/2-y,-x,1/2+z
1/2-y,1/2-x,z
x,z,-y
x,1/2+z,1/2-y
1/2+x,z,1/2-y
1/2+x,1/2+z,-y
-z,-y,x
-z,1/2-y,1/2+x
1/2-z,-y,1/2+x
1/2-z,1/2-y,x
y,x,-z
y,1/2+x,1/2-z
1/2+y,x,1/2-z
1/2+y,1/2+x,-z
-z,-x,-y
-z,1/2-x,1/2-y
1/2-z,-x,1/2-y
1/2-z,1/2-x,-y
y,z,x
y,1/2+z,1/2+x
1/2+y,z,1/2+x
1/2+y,1/2+z,x
-x,-y,-z
-x,1/2-y,1/2-z
1/2-x,-y,1/2-z
1/2-x,1/2-y,-z
z,x,y
z,1/2+x,1/2+y
1/2+z,x,1/2+y
1/2+z,1/2+x,y
-y,-z,-x
-y,1/2-z,1/2-x
1/2-y,-z,1/2-x
1/2-y,1/2-z,-x
loop_
_atom_site_label
_atom_site_fract_x
_atom_site_fract_y
_atom_site_fract_z
_atom_site_occupancy
Na1 0.00000 0.00000 0.00000 0.50000
Pr1 0.00000 0.00000 0.00000 0.50000
S1 0.50000 0.50000 0.50000 1.00000
loop_
_cod_related_entry_id
_cod_related_entry_database
_cod_related_entry_code
1 AMCSD 0016833
