#------------------------------------------------------------------------------
#$Date: 2017-10-06 19:24:22 +0300 (Fri, 06 Oct 2017) $
#$Revision: 201816 $
#$URL: file:///home/coder/svn-repositories/cod/cif/9/01/63/9016382.cif $
#------------------------------------------------------------------------------
#
# This file is available in the Crystallography Open Database (COD),
# http://www.crystallography.net/. The original data for this entry
# were provided the American Mineralogist Crystal Structure Database,
# http://rruff.geo.arizona.edu/AMS/amcsd.php
#
# The file may be used within the scientific community so long as
# proper attribution is given to the journal article from which the
# data were obtained.
#
data_9016382
loop_
_publ_author_name
'Vegard, L.'
_publ_section_title
;
 Die Struktur von festem N2 O4 bei der Temperatur von fluessiger Luft.
 _cod_database_code 1010516
;
_journal_name_full               'Zeitschrift fur Physik'
_journal_page_first              184
_journal_page_last               203
_journal_paper_doi               10.1007/BF01390966
_journal_volume                  68
_journal_year                    1931
_chemical_formula_sum            'N O2'
_space_group_IT_number           199
_symmetry_space_group_name_Hall  'I 2b 2c 3'
_symmetry_space_group_name_H-M   'I 21 3'
_cell_angle_alpha                90
_cell_angle_beta                 90
_cell_angle_gamma                90
_cell_length_a                   7.77
_cell_length_b                   7.77
_cell_length_c                   7.77
_cell_volume                     469.097
_database_code_amcsd             0017427
_exptl_crystal_density_diffrn    1.954
_cod_duplicate_entry             1010516
_cod_database_code               9016382
_amcsd_formula_title             'N2 O4'
loop_
_space_group_symop_operation_xyz
x,y,z
1/2+x,1/2+y,1/2+z
1/2-z,-x,1/2+y
-z,1/2-x,+y
-z,1/2+x,1/2-y
1/2-z,+x,-y
1/2+z,1/2-x,-y
+z,-x,1/2-y
z,x,y
1/2+z,1/2+x,1/2+y
1/2+y,1/2-z,-x
+y,-z,1/2-x
1/2-y,-z,1/2+x
-y,1/2-z,+x
-y,1/2+z,1/2-x
1/2-y,+z,-x
y,z,x
1/2+y,1/2+z,1/2+x
-x,1/2+y,1/2-z
1/2-x,+y,-z
1/2+x,1/2-y,-z
+x,-y,1/2-z
1/2-x,-y,1/2+z
-x,1/2-y,+z
loop_
_atom_site_label
_atom_site_fract_x
_atom_site_fract_y
_atom_site_fract_z
N1 0.40300 0.00000 0.25000
O1 0.17800 0.25000 0.40300
loop_
_cod_related_entry_id
_cod_related_entry_database
_cod_related_entry_code
1 AMCSD 0017427
