#------------------------------------------------------------------------------
#$Date: 2017-10-06 19:24:22 +0300 (Fri, 06 Oct 2017) $
#$Revision: 201816 $
#$URL: file:///home/coder/svn-repositories/cod/cif/9/01/62/9016299.cif $
#------------------------------------------------------------------------------
#
# This file is available in the Crystallography Open Database (COD),
# http://www.crystallography.net/. The original data for this entry
# were provided the American Mineralogist Crystal Structure Database,
# http://rruff.geo.arizona.edu/AMS/amcsd.php
#
# The file may be used within the scientific community so long as
# proper attribution is given to the journal article from which the
# data were obtained.
#
data_9016299
loop_
_publ_author_name
'Hervieu, M.'
'Michel, C.'
'Raveau, B.'
_publ_section_title
;
 Proprietes d'echanges d'ions de quelques oxydes ternaires de type
 pyrochlore: les pyrochlores H1+x(H2O)Ta1+xW1-xO6 et NH4TaWO6
 _cod_database_code 1001165
;
_journal_name_full               'Bulletin de la Societe Chimique de France'
_journal_page_first              3939
_journal_page_last               3943
_journal_volume                  1971
_journal_year                    1971
_chemical_formula_sum            'O7 Ta1.8 W0.2'
_space_group_IT_number           227
_symmetry_space_group_name_Hall  '-F 4vw 2vw 3'
_symmetry_space_group_name_H-M   'F d -3 m :2'
_cell_angle_alpha                90
_cell_angle_beta                 90
_cell_angle_gamma                90
_cell_length_a                   10.55
_cell_length_b                   10.55
_cell_length_c                   10.55
_cell_volume                     1174.241
_database_code_amcsd             0012103
_exptl_crystal_density_diffrn    5.368
_cod_duplicate_entry             1001165
_cod_original_sg_symbol_H-M      'F d 3 m'
_cod_original_formula_sum        '(Ta1.8 W.2) O7'
_cod_database_code               9016299
_amcsd_formula_title             'H3.8 O7 Ta1.8 W0.2'
loop_
_space_group_symop_operation_xyz
x,y,z
x,1/2+y,1/2+z
1/2+x,y,1/2+z
1/2+x,1/2+y,z
3/4+z,1/2-x,1/4+y
3/4+z,-x,3/4+y
1/4+z,1/2-x,3/4+y
1/4+z,-x,1/4+y
3/4-y,1/2+z,1/4-x
3/4-y,+z,3/4-x
1/4-y,1/2+z,3/4-x
1/4-y,+z,1/4-x
3/4+x,1/2-y,1/4+z
3/4+x,-y,3/4+z
1/4+x,1/2-y,3/4+z
1/4+x,-y,1/4+z
3/4-z,1/2+x,1/4-y
3/4-z,+x,3/4-y
1/4-z,1/2+x,3/4-y
1/4-z,+x,1/4-y
3/4+y,1/2-z,1/4+x
3/4+y,-z,3/4+x
1/4+y,1/2-z,3/4+x
1/4+y,-z,1/4+x
3/4-x,1/2+y,1/4-z
3/4-x,+y,3/4-z
1/4-x,1/2+y,3/4-z
1/4-x,+y,1/4-z
1/2+x,3/4-z,1/4-y
1/2+x,1/4-z,3/4-y
+x,3/4-z,3/4-y
+x,1/4-z,1/4-y
1/2-z,3/4+y,1/4+x
1/2-z,1/4+y,3/4+x
-z,3/4+y,3/4+x
-z,1/4+y,1/4+x
1/2+y,3/4-x,1/4-z
1/2+y,1/4-x,3/4-z
+y,3/4-x,3/4-z
+y,1/4-x,1/4-z
1/2-x,3/4+z,1/4+y
1/2-x,1/4+z,3/4+y
-x,3/4+z,3/4+y
-x,1/4+z,1/4+y
1/2+z,3/4-y,1/4-x
1/2+z,1/4-y,3/4-x
+z,3/4-y,3/4-x
+z,1/4-y,1/4-x
1/2-y,3/4+x,1/4+z
1/2-y,1/4+x,3/4+z
-y,3/4+x,3/4+z
-y,1/4+x,1/4+z
x,1/2+z,1/2+y
x,+z,+y
1/2+x,1/2+z,+y
1/2+x,+z,1/2+y
-z,1/2-y,1/2-x
-z,-y,-x
1/2-z,1/2-y,-x
1/2-z,-y,1/2-x
y,1/2+x,1/2+z
y,+x,+z
1/2+y,1/2+x,+z
1/2+y,+x,1/2+z
-x,1/2-z,1/2-y
-x,-z,-y
1/2-x,1/2-z,-y
1/2-x,-z,1/2-y
z,1/2+y,1/2+x
z,+y,+x
1/2+z,1/2+y,+x
1/2+z,+y,1/2+x
-y,1/2-x,1/2-z
-y,-x,-z
1/2-y,1/2-x,-z
1/2-y,-x,1/2-z
3/4+z,1/4+x,1/2-y
3/4+z,3/4+x,-y
1/4+z,1/4+x,-y
1/4+z,3/4+x,1/2-y
3/4-y,1/4-z,1/2+x
3/4-y,3/4-z,+x
1/4-y,1/4-z,+x
1/4-y,3/4-z,1/2+x
3/4+x,1/4+y,1/2-z
3/4+x,3/4+y,-z
1/4+x,1/4+y,-z
1/4+x,3/4+y,1/2-z
3/4-z,1/4-x,1/2+y
3/4-z,3/4-x,+y
1/4-z,1/4-x,+y
1/4-z,3/4-x,1/2+y
3/4+y,1/4+z,1/2-x
3/4+y,3/4+z,-x
1/4+y,1/4+z,-x
1/4+y,3/4+z,1/2-x
3/4-x,1/4-y,1/2+z
3/4-x,3/4-y,+z
1/4-x,1/4-y,+z
1/4-x,3/4-y,1/2+z
-z,3/4+x,3/4+y
-z,1/4+x,1/4+y
1/2-z,3/4+x,1/4+y
1/2-z,1/4+x,3/4+y
y,3/4-z,3/4-x
y,1/4-z,1/4-x
1/2+y,3/4-z,1/4-x
1/2+y,1/4-z,3/4-x
-x,3/4+y,3/4+z
-x,1/4+y,1/4+z
1/2-x,3/4+y,1/4+z
1/2-x,1/4+y,3/4+z
z,3/4-x,3/4-y
z,1/4-x,1/4-y
1/2+z,3/4-x,1/4-y
1/2+z,1/4-x,3/4-y
-y,3/4+z,3/4+x
-y,1/4+z,1/4+x
1/2-y,3/4+z,1/4+x
1/2-y,1/4+z,3/4+x
x,3/4-y,3/4-z
x,1/4-y,1/4-z
1/2+x,3/4-y,1/4-z
1/2+x,1/4-y,3/4-z
1/4-x,1/2+z,3/4-y
1/4-x,+z,1/4-y
3/4-x,1/2+z,1/4-y
3/4-x,+z,3/4-y
1/4+z,1/2-y,3/4+x
1/4+z,-y,1/4+x
3/4+z,1/2-y,1/4+x
3/4+z,-y,3/4+x
1/4-y,1/2+x,3/4-z
1/4-y,+x,1/4-z
3/4-y,1/2+x,1/4-z
3/4-y,+x,3/4-z
1/4+x,1/2-z,3/4+y
1/4+x,-z,1/4+y
3/4+x,1/2-z,1/4+y
3/4+x,-z,3/4+y
1/4-z,1/2+y,3/4-x
1/4-z,+y,1/4-x
3/4-z,1/2+y,1/4-x
3/4-z,+y,3/4-x
1/4+y,1/2-x,3/4+z
1/4+y,-x,1/4+z
3/4+y,1/2-x,1/4+z
3/4+y,-x,3/4+z
3/4-x,3/4-z,y
3/4-x,1/4-z,1/2+y
1/4-x,3/4-z,1/2+y
1/4-x,1/4-z,y
3/4+z,3/4+y,-x
3/4+z,1/4+y,1/2-x
1/4+z,3/4+y,1/2-x
1/4+z,1/4+y,-x
3/4-y,3/4-x,z
3/4-y,1/4-x,1/2+z
1/4-y,3/4-x,1/2+z
1/4-y,1/4-x,z
3/4+x,3/4+z,-y
3/4+x,1/4+z,1/2-y
1/4+x,3/4+z,1/2-y
1/4+x,1/4+z,-y
3/4-z,3/4-y,x
3/4-z,1/4-y,1/2+x
1/4-z,3/4-y,1/2+x
1/4-z,1/4-y,x
3/4+y,3/4+x,-z
3/4+y,1/4+x,1/2-z
1/4+y,3/4+x,1/2-z
1/4+y,1/4+x,-z
-z,-x,-y
-z,1/2-x,1/2-y
1/2-z,-x,1/2-y
1/2-z,1/2-x,-y
y,z,x
y,1/2+z,1/2+x
1/2+y,z,1/2+x
1/2+y,1/2+z,x
-x,-y,-z
-x,1/2-y,1/2-z
1/2-x,-y,1/2-z
1/2-x,1/2-y,-z
z,x,y
z,1/2+x,1/2+y
1/2+z,x,1/2+y
1/2+z,1/2+x,y
-y,-z,-x
-y,1/2-z,1/2-x
1/2-y,-z,1/2-x
1/2-y,1/2-z,-x
loop_
_atom_site_label
_atom_site_fract_x
_atom_site_fract_y
_atom_site_fract_z
_atom_site_occupancy
Ta1 0.50000 0.50000 0.50000 0.90000
W1 0.50000 0.50000 0.50000 0.10000
O1 0.43500 0.12500 0.12500 1.00000
O2 0.12500 0.12500 0.12500 1.00000
loop_
_cod_related_entry_id
_cod_related_entry_database
_cod_related_entry_code
1 AMCSD 0012103
