#------------------------------------------------------------------------------
#$Date: 2017-10-06 19:24:22 +0300 (Fri, 06 Oct 2017) $
#$Revision: 201816 $
#$URL: file:///home/coder/svn-repositories/cod/cif/9/01/63/9016337.cif $
#------------------------------------------------------------------------------
#
# This file is available in the Crystallography Open Database (COD),
# http://www.crystallography.net/. The original data for this entry
# were provided the American Mineralogist Crystal Structure Database,
# http://rruff.geo.arizona.edu/AMS/amcsd.php
#
# The file may be used within the scientific community so long as
# proper attribution is given to the journal article from which the
# data were obtained.
#
data_9016337
loop_
_publ_author_name
'Bartlett, G.'
'Langmuir, I.'
_publ_section_title
;
 The crystal structure of the ammonium halides above and below the
 transition temperature
 _cod_database_code 1011300
;
_journal_name_full               'Journal of the American Chemical Society'
_journal_page_first              84
_journal_page_last               91
_journal_paper_doi               10.1021/ja01434a010
_journal_volume                  43
_journal_year                    1921
_chemical_formula_sum            'Br N'
_space_group_IT_number           221
_symmetry_space_group_name_Hall  '-P 4 2 3'
_symmetry_space_group_name_H-M   'P m -3 m'
_cell_angle_alpha                90
_cell_angle_beta                 90
_cell_angle_gamma                90
_cell_length_a                   3.988
_cell_length_b                   3.988
_cell_length_c                   3.988
_cell_volume                     63.426
_database_code_amcsd             0018147
_exptl_crystal_density_diffrn    2.459
_cod_duplicate_entry             1011300
_cod_original_sg_symbol_H-M      'P m 3 m'
_cod_original_formula_sum        'N Br'
_cod_database_code               9016337
_amcsd_formula_title             'Br H4 N'
loop_
_space_group_symop_operation_xyz
x,y,z
z,-x,y
-y,z,-x
x,-y,z
-z,x,-y
y,-z,x
-x,y,-z
x,-z,-y
-z,y,x
y,-x,-z
-x,z,y
z,-y,-x
-y,x,z
x,z,y
-z,-y,-x
y,x,z
-x,-z,-y
z,y,x
-y,-x,-z
z,x,-y
-y,-z,x
x,y,-z
-z,-x,y
y,z,-x
-x,-y,z
-z,x,y
y,-z,-x
-x,y,z
z,-x,-y
-y,z,x
x,-y,-z
-x,z,-y
z,-y,x
-y,x,-z
x,-z,y
-z,y,-x
y,-x,z
-x,-z,y
z,y,-x
-y,-x,z
x,z,-y
-z,-y,x
y,x,-z
-z,-x,-y
y,z,x
-x,-y,-z
z,x,y
-y,-z,-x
loop_
_atom_site_label
_atom_site_fract_x
_atom_site_fract_y
_atom_site_fract_z
_atom_site_attached_hydrogens
N1 0.00000 0.00000 0.00000 4
Br1 0.50000 0.50000 0.50000 0
loop_
_cod_related_entry_id
_cod_related_entry_database
_cod_related_entry_code
1 AMCSD 0018147
