#------------------------------------------------------------------------------
#$Date: 2017-10-06 19:24:22 +0300 (Fri, 06 Oct 2017) $
#$Revision: 201816 $
#$URL: file:///home/coder/svn-repositories/cod/cif/9/01/61/9016170.cif $
#------------------------------------------------------------------------------
#
# This file is available in the Crystallography Open Database (COD),
# http://www.crystallography.net/. The original data for this entry
# were provided the American Mineralogist Crystal Structure Database,
# http://rruff.geo.arizona.edu/AMS/amcsd.php
#
# The file may be used within the scientific community so long as
# proper attribution is given to the journal article from which the
# data were obtained.
#
data_9016170
loop_
_publ_author_name
'Zintl, E.'
'Loosen, K.'
_publ_section_title
;
 Siliciumdisulfid, ein anorganischer Faserstoff mit Kettenmolekuelen.
 _cod_database_code 1010272
;
_journal_name_full
'Zeitschrift fur Physikalische Chemie, Abteilung A: Chemische'
_journal_page_first              301
_journal_page_last               311
_journal_volume                  174
_journal_year                    1935
_chemical_formula_sum            'S4 Si'
_space_group_IT_number           72
_symmetry_space_group_name_Hall  '-I 2b 2b'
_symmetry_space_group_name_H-M   'I c m a'
_cell_angle_alpha                90
_cell_angle_beta                 90
_cell_angle_gamma                90
_cell_length_a                   5.6
_cell_length_b                   5.53
_cell_length_c                   9.55
_cell_volume                     295.744
_database_code_amcsd             0017198
_exptl_crystal_density_diffrn    3.511
_cod_duplicate_entry             1010272
_cod_original_formula_sum        'Si S4'
_cod_database_code               9016170
_amcsd_formula_title             'S2 Si'
loop_
_space_group_symop_operation_xyz
x,y,z
1/2+x,1/2+y,1/2+z
-x,1/2+y,z
1/2-x,+y,1/2+z
x,1/2-y,-z
1/2+x,-y,1/2-z
x,1/2+y,-z
1/2+x,+y,1/2-z
-x,1/2-y,z
1/2-x,-y,1/2+z
x,-y,z
1/2+x,1/2-y,1/2+z
-x,y,-z
1/2-x,1/2+y,1/2-z
-x,-y,-z
1/2-x,1/2-y,1/2-z
loop_
_atom_site_label
_atom_site_fract_x
_atom_site_fract_y
_atom_site_fract_z
Si1 0.00000 0.00000 0.00000
S1 0.20800 0.25000 0.11900
loop_
_cod_related_entry_id
_cod_related_entry_database
_cod_related_entry_code
1 AMCSD 0017198
