#------------------------------------------------------------------------------
#$Date: 2023-11-10 21:21:08 +0200 (Fri, 10 Nov 2023) $
#$Revision: 287519 $
#$URL: file:///home/coder/svn-repositories/cod/cif/9/01/61/9016192.cif $
#------------------------------------------------------------------------------
#
# This file is available in the Crystallography Open Database (COD),
# http://www.crystallography.net/. The original data for this entry
# were provided the American Mineralogist Crystal Structure Database,
# http://rruff.geo.arizona.edu/AMS/amcsd.php
#
# The file may be used within the scientific community so long as
# proper attribution is given to the journal article from which the
# data were obtained.
#
data_9016192
loop_
_publ_author_name
'MacGillavry, C.'
'Bijvoet, J.'
_publ_section_title
;
 Die Kristallstrukturen von Zn(NH3)2Cl2 und Zn(NH3)2Br2
 _cod_database_code 1010198
;
_journal_name_full               'Zeitschrift fur Kristallographie'
_journal_page_first              249
_journal_page_last               255
_journal_volume                  94
_journal_year                    1936
_chemical_formula_sum            'Br2 N2 Zn'
_space_group_IT_number           74
_symmetry_space_group_name_Hall  '-I 2c 2'
_symmetry_space_group_name_H-M   'I m a m'
_cell_angle_alpha                90
_cell_angle_beta                 90
_cell_angle_gamma                90
_cell_length_a                   8.12
_cell_length_b                   8.81
_cell_length_c                   8.41
_cell_volume                     601.628
_database_code_amcsd             0017134
_exptl_crystal_density_diffrn    2.796
_cod_original_formula_sum        'Zn Br2 N2'
_cod_database_code               9016192
_amcsd_formula_title             Zn(NH3)2Br2
loop_
_space_group_symop_operation_xyz
x,y,z
1/2+x,1/2+y,1/2+z
x,y,1/2-z
1/2+x,1/2+y,-z
-x,-y,1/2+z
1/2-x,1/2-y,+z
-x,y,z
1/2-x,1/2+y,1/2+z
x,-y,-z
1/2+x,1/2-y,1/2-z
x,-y,1/2+z
1/2+x,1/2-y,+z
-x,y,1/2-z
1/2-x,1/2+y,-z
-x,-y,-z
1/2-x,1/2-y,1/2-z
loop_
_atom_site_label
_atom_site_fract_x
_atom_site_fract_y
_atom_site_fract_z
_atom_site_attached_hydrogens
Zn1 0.00000 0.38300 0.25000 0
Br1 0.00000 0.23100 0.01600 0
N1 0.22000 0.52000 0.25000 3
loop_
_cod_related_entry_id
_cod_related_entry_database
_cod_related_entry_code
1 AMCSD 0017134
_cod_duplicate_entry 1010198
