#------------------------------------------------------------------------------
#$Date: 2017-10-06 19:24:22 +0300 (Fri, 06 Oct 2017) $
#$Revision: 201816 $
#$URL: file:///home/coder/svn-repositories/cod/cif/9/01/62/9016261.cif $
#------------------------------------------------------------------------------
#
# This file is available in the Crystallography Open Database (COD),
# http://www.crystallography.net/. The original data for this entry
# were provided the American Mineralogist Crystal Structure Database,
# http://rruff.geo.arizona.edu/AMS/amcsd.php
#
# The file may be used within the scientific community so long as
# proper attribution is given to the journal article from which the
# data were obtained.
#
data_9016261
loop_
_publ_author_name
'Beintema, J.'
_publ_section_title
;
 Die Kristallstruktur der Alkaliperrhenate und -periodate
 _cod_database_code 1010428
;
_journal_name_full               'Zeitschrift fur Kristallographie'
_journal_page_first              300
_journal_page_last               322
_journal_volume                  97
_journal_year                    1937
_chemical_formula_sum            'Cs I'
_space_group_IT_number           62
_symmetry_space_group_name_Hall  '-P 2ac 2n'
_symmetry_space_group_name_H-M   'P n m a'
_cell_angle_alpha                90
_cell_angle_beta                 90
_cell_angle_gamma                90
_cell_length_a                   5.838
_cell_length_b                   6.014
_cell_length_c                   14.364
_cell_volume                     504.316
_database_code_amcsd             0017352
_exptl_crystal_density_diffrn    3.422
_cod_duplicate_entry             1010428
_cod_database_code               9016261
_amcsd_formula_title             'Cs I O4'
loop_
_space_group_symop_operation_xyz
x,y,z
x,1/2-y,z
-x,1/2+y,-z
1/2-x,1/2+y,1/2+z
1/2+x,1/2-y,1/2-z
1/2+x,y,1/2-z
1/2-x,-y,1/2+z
-x,-y,-z
loop_
_atom_site_label
_atom_site_fract_x
_atom_site_fract_y
_atom_site_fract_z
Cs1 0.03000 0.25000 0.12500
I1 0.97000 0.25000 0.62500
loop_
_cod_related_entry_id
_cod_related_entry_database
_cod_related_entry_code
1 AMCSD 0017352
