#------------------------------------------------------------------------------
#$Date: 2017-10-06 19:24:22 +0300 (Fri, 06 Oct 2017) $
#$Revision: 201816 $
#$URL: file:///home/coder/svn-repositories/cod/cif/9/01/64/9016461.cif $
#------------------------------------------------------------------------------
#
# This file is available in the Crystallography Open Database (COD),
# http://www.crystallography.net/. The original data for this entry
# were provided the American Mineralogist Crystal Structure Database,
# http://rruff.geo.arizona.edu/AMS/amcsd.php
#
# The file may be used within the scientific community so long as
# proper attribution is given to the journal article from which the
# data were obtained.
#
data_9016461
loop_
_publ_author_name
'Hoard, J.'
'Vincent, W.'
_publ_section_title
;
 Ytructures of Complex Fluorides. Potassium Hexafluogermanate and
 Ammonium Hexafluogermanate
 _cod_database_code 1010102
;
_journal_name_full               'Journal of the American Chemical Society'
_journal_page_first              2849
_journal_page_last               2852
_journal_paper_doi               10.1021/ja01265a082
_journal_volume                  61
_journal_year                    1939
_chemical_formula_sum            'F6 Ge N2'
_space_group_IT_number           164
_symmetry_space_group_name_Hall  '-P 3 2"'
_symmetry_space_group_name_H-M   'P -3 m 1'
_cell_angle_alpha                90
_cell_angle_beta                 90
_cell_angle_gamma                120
_cell_length_a                   5.85
_cell_length_b                   5.85
_cell_length_c                   4.775
_cell_volume                     141.519
_database_code_amcsd             0017035
_exptl_crystal_density_diffrn    2.518
_cod_duplicate_entry             1010102
_cod_original_formula_sum        'N2 Ge F6'
_cod_database_code               9016461
_amcsd_formula_title             'F6 Ge H8 N2'
loop_
_space_group_symop_operation_xyz
x,y,z
-y,-x,z
y,-x+y,-z
-x,-x+y,-z
-x+y,-x,z
-x+y,y,z
-x,-y,-z
y,x,-z
-y,x-y,z
x,x-y,z
x-y,x,-z
x-y,-y,-z
loop_
_atom_site_label
_atom_site_fract_x
_atom_site_fract_y
_atom_site_fract_z
_atom_site_attached_hydrogens
N1 0.33333 0.66667 0.69500 4
Ge1 0.00000 0.00000 0.00000 0
F1 0.14300 0.85700 0.21400 0
loop_
_cod_related_entry_id
_cod_related_entry_database
_cod_related_entry_code
1 AMCSD 0017035
