#------------------------------------------------------------------------------
#$Date: 2017-10-06 19:24:22 +0300 (Fri, 06 Oct 2017) $
#$Revision: 201816 $
#$URL: file:///home/coder/svn-repositories/cod/cif/9/01/65/9016568.cif $
#------------------------------------------------------------------------------
#
# This file is available in the Crystallography Open Database (COD),
# http://www.crystallography.net/. The original data for this entry
# were provided the American Mineralogist Crystal Structure Database,
# http://rruff.geo.arizona.edu/AMS/amcsd.php
#
# The file may be used within the scientific community so long as
# proper attribution is given to the journal article from which the
# data were obtained.
#
data_9016568
loop_
_publ_author_name
'Levi, G.'
'Scherillo, A.'
_publ_section_title
;
 Ricerche cristallografiche sui sali dell acido cloroso
 _cod_database_code 1010621
;
_journal_name_full               'Zeitschrift fur Kristallographie'
_journal_page_first              431
_journal_page_last               452
_journal_volume                  76
_journal_year                    1931
_chemical_formula_sum            'Cl N'
_space_group_IT_number           100
_symmetry_space_group_name_Hall  'P 4 -2ab'
_symmetry_space_group_name_H-M   'P 4 b m'
_cell_angle_alpha                90
_cell_angle_beta                 90
_cell_angle_gamma                90
_cell_length_a                   6.3
_cell_length_b                   6.3
_cell_length_c                   6.3
_cell_volume                     250.047
_database_code_amcsd             0017503
_exptl_crystal_density_diffrn    0.657
_cod_duplicate_entry             1010621
_cod_original_formula_sum        'N Cl'
_cod_database_code               9016568
_amcsd_formula_title             'Cl H4 N O2'
loop_
_space_group_symop_operation_xyz
x,y,z
1/2-y,1/2-x,z
-y,x,z
1/2+x,1/2-y,z
-x,-y,z
1/2+y,1/2+x,z
y,-x,z
1/2-x,1/2+y,z
loop_
_atom_site_label
_atom_site_fract_x
_atom_site_fract_y
_atom_site_fract_z
_atom_site_attached_hydrogens
N1 0.00000 0.00000 0.00000 4
Cl1 0.50000 0.00000 0.25000 0
loop_
_cod_related_entry_id
_cod_related_entry_database
_cod_related_entry_code
1 AMCSD 0017503
